
Running Job 1 of 2 bareptpo.in
qchem bareptpo.in_51102.0 /tmp/qchem51102/ 0
/software/QChem/5.3/exe/qcprog.exe_s bareptpo.in_51102.0 /tmp/qchem51102/
                  Welcome to Q-Chem
     A Quantum Leap Into The Future Of Chemistry


 Q-Chem 5.3, Q-Chem, Inc., Pleasanton, CA (2020)

 License issued to: SRG Mark Ratner, Northwestern University

 Yihan Shao,  Zhengting Gan,  E. Epifanovsky,  A. T. B. Gilbert,  M. Wormit,  
 J. Kussmann,  A. W. Lange,  A. Behn,  Jia Deng,  Xintian Feng,  D. Ghosh,  
 M. Goldey,  P. R. Horn,  L. D. Jacobson,  I. Kaliman,  T. Kus,  A. Landau,  
 Jie Liu,  E. I. Proynov,  R. M. Richard,  R. P. Steele,  E. J. Sundstrom,  
 H. L. Woodcock III,  P. M. Zimmerman,  D. Zuev,  B. Alam,  B. Albrecht,  
 A. Aldossary,  E. Alguire,  S. A. Baeppler,  D. Barton,  Z. Benda,  
 Y. A. Bernard,  E. J. Berquist,  K. B. Bravaya,  H. Burton,  K. Carter-Fenk,  
 D. Casanova,  Chun-Min Chang,  Yunqing Chen,  A. Chien,  K. D. Closser,  
 M. P. Coons,  S. Coriani,  S. Dasgupta,  A. L. Dempwolff,  M. Diedenhofen,  
 Hainam Do,  R. G. Edgar,  Po-Tung Fang,  S. Faraji,  S. Fatehi,  
 Qingguo Feng,  J. Fosso-Tande,  J. Gayvert,  Qinghui Ge,  A. Ghysels,  
 G. Gidofalvi,  J. Gomes,  J. Gonthier,  S. Gulania,  A. Gunina,  D. Hait,  
 M. W. D. Hanson-Heine,  S. Hammes-Schiffer,  P. H. P. Harbach,  
 A. W. Hauser,  M. F. Herbst,  J. E. Herr,  E. G. Hohenstein,  Z. C. Holden,  
 S. Houck,  Kerwin Hui,  B. C. Huynh,  M. Ivanov,  T.-C. Jagau,  Hyunjun Ji,  
 B. Kaduk,  K. Khistyaev,  Jaehoon Kim,  P. Klunzinger,  K. Koh,  
 D. Kosenkov,  L. Koulias,  T. Kowalczyk,  C. M. Krauter,  A. Kunitsa,  
 Ka Un Lao,  A. Laurent,  K. V. Lawler,  Joonho Lee,  D. Lefrancois,  
 S. Lehtola,  D. S. Levine,  Yi-Pei Li,  You-Sheng Lin,  Fenglai Liu,  
 Kuan-Yu Liu,  E. Livshits,  M. Loipersberger,  A. Luenser,  P. Manohar,  
 E. Mansoor,  S. F. Manzer,  Shan-Ping Mao,  Yuezhi Mao,  N. Mardirossian,  
 A. V. Marenich,  T. Markovich,  L. A. Martinez-Martinez,  S. A. Maurer,  
 N. J. Mayhall,  S. C. McKenzie,  J.-M. Mewes,  P. Morgante,  A. F. Morrison,  
 J. W. Mullinax,  K. Nanda,  T. S. Nguyen-Beck,  R. Olivares-Amaya,  
 K. J. Oosterbaan,  J. A. Parkhill,  S. K. Paul,  F. Pavosevic,  Zheng Pei,  
 T. M. Perrine,  F. Plasser,  P. Pokhilko,  S. Prager,  A. Prociuk,  
 E. Ramos,  B. Rana,  D. R. Rehn,  F. Rob,  E. Rossomme,  M. Scheurer,  
 M. Schneider,  N. Sergueev,  S. M. Sharada,  S. Sharma,  W. Skomorowski,  
 D. W. Small,  T. Stauch,  C. J. Stein,  T. Stein,  Yu-Chuan Su,  
 S. P. Veccham,  Zhen Tao,  A. J. W. Thom,  A. Tkatchenko,  T. Tsuchimochi,  
 N. M. Tubman,  L. Vogt,  M. L. Vidal,  O. Vydrov,  M. A. Watson,  J. Wenzel,  
 M. de Wergifosse,  T. A. Wesolowski,  A. White,  J. Witte,  A. Yamada,  
 Jun Yang,  K. Yao,  S. Yeganeh,  S. R. Yost,  Zhi-Qiang You,  A. Zech,  
 Igor Ying Zhang,  Xing Zhang,  Yan Zhao,  Ying Zhu,  B. R. Brooks,  
 G. K. L. Chan,  C. J. Cramer,  M. S. Gordon,  W. J. Hehre,  A. Klamt,  
 M. W. Schmidt,  C. D. Sherrill,  D. G. Truhlar,  A. Aspuru-Guzik,  R. Baer,  
 A. T. Bell,  N. A. Besley,  Jeng-Da Chai,  A. E. DePrince, III,  
 R. A. DiStasio Jr.,  A. Dreuw,  B. D. Dunietz,  T. R. Furlani,  
 Chao-Ping Hsu,  Yousung Jung,  Jing Kong,  D. S. Lambrecht,  WanZhen Liang,  
 C. Ochsenfeld,  V. A. Rassolov,  L. V. Slipchenko,  J. E. Subotnik,  
 T. Van Voorhis,  J. M. Herbert,  A. I. Krylov,  P. M. W. Gill,  M. Head-Gordon

 Contributors to earlier versions of Q-Chem not listed above: 
 R. D. Adamson,  B. Austin,  J. Baker,  G. J. O. Beran,  K. Brandhorst,  
 S. T. Brown,  E. F. C. Byrd,  A. K. Chakraborty,  C.-L. Cheng,  
 Siu Hung Chien,  D. M. Chipman,  D. L. Crittenden,  H. Dachsel,  
 R. J. Doerksen,  A. D. Dutoi,  L. Fusti-Molnar,  W. A. Goddard III,  
 A. Golubeva-Zadorozhnaya,  S. R. Gwaltney,  G. Hawkins,  A. Heyden,  
 S. Hirata,  G. Kedziora,  F. J. Keil,  C. Kelley,  Jihan Kim,  R. A. King,  
 R. Z. Khaliullin,  P. P. Korambath,  W. Kurlancheek,  A. M. Lee,  M. S. Lee,  
 S. V. Levchenko,  Ching Yeh Lin,  D. Liotard,  R. C. Lochan,  I. Lotan,  
 P. E. Maslen,  N. Nair,  D. P. O'Neill,  D. Neuhauser,  E. Neuscamman,  
 C. M. Oana,  R. Olson,  B. Peters,  R. Peverati,  P. A. Pieniazek,  
 Y. M. Rhee,  J. Ritchie,  M. A. Rohrdanz,  E. Rosta,  N. J. Russ,  
 H. F. Schaefer III,  N. E. Schultz,  N. Shenvi,  A. C. Simmonett,  A. Sodt,  
 D. Stuck,  K. S. Thanthiriwatte,  V. Vanovschi,  Tao Wang,  A. Warshel,  
 C. F. Williams,  Q. Wu,  X. Xu,  W. Zhang

 Please cite Q-Chem as follows:
 Y. Shao et al., Mol. Phys. 113, 184-215 (2015)
 DOI: 10.1080/00268976.2014.952696

 Q-Chem 5.3.1 for Intel X86 EM64T Linux

 Parts of Q-Chem use Armadillo 9.800.1 (Horizon Scraper).
 http://arma.sourceforge.net/

 Q-Chem begins on Thu Nov  3 11:24:25 2022  

Host: 
0

     Scratch files written to /tmp/qchem51102//
 Aug2920 |scratch|qcdevops|jenkins|workspace|build_RNUM 4082   
Processing $rem in /software/QChem/5.3/config/preferences:
Processing $rem in /home/ahs1068/.qchemrc:

Checking the input file for inconsistencies... 	...done.

--------------------------------------------------------------
User input:
--------------------------------------------------------------
$comment
Geometry Optimization of bare without side chains PTPO with wB97X-D
Iqmol optimization redone to be slightly more symmetric and with thiophene rings turned inwards, which lowers UFF energy
$end

$molecule
0 1
C   -1.9120179    1.2442193   -0.1480512
C   -1.7082360   -0.1412776   -0.2181278
C   -0.8198700    2.1366369   -0.1566692
C    2.7125737    3.0148931   -0.1958492
C   -3.8449288   -1.6972524   -0.0950588
C    0.4798208    1.6096279   -0.2400401
C    0.6800209    0.2286778   -0.3216565
C   -0.4065891   -0.6630838   -0.3103966
H   -2.9259431    1.6167478   -0.0711528
O   -0.2274259   -2.0106329   -0.3752163
O   -0.9855469    3.4842684   -0.0700906
C    1.6529037    2.4430059   -0.2116295
C    4.0428255    3.5644022   -0.1827443
S    5.1246554    0.9708566   -0.3029002
H    7.2723002   -0.2589400   -0.2858530
C    5.2048593    2.6527457   -0.1961915
O    4.1996924    4.7735367   -0.1275926
H    8.4963113    2.0372316   -0.0830388
C    6.5420269    3.0245145   -0.1133608
C    6.7833596    0.7053934   -0.2475915
H    6.8765454    4.0499182   -0.0300281
C    7.4210977    1.9340176   -0.1409064
C   -2.8558548   -1.0106628   -0.1513910
C   -5.0540135   -2.4777761   -0.0296807
H    1.6952504   -0.1439263   -0.3805588
O   -4.9779599   -3.6893290    0.0987784
C   -6.3707249   -1.8133039   -0.0644932
C   -8.3097465   -0.2362976   -0.2283219
S   -6.6344925   -0.1751552   -0.3623248
C   -8.6813068   -1.5420600    0.0621546
C   -7.6000310   -2.4269414    0.1505505
H   -8.9854506    0.6003088   -0.3440882
H   -7.7159990   -3.4793222    0.3746396
C   -2.1880049    4.1389757    0.1097275
H   -2.6420012    3.8414172    1.0795969
H   -2.0087847    5.2332748    0.1250639
C    0.9926962   -2.6535201   -0.4597419
H    1.6111345   -2.4236591    0.4348753
H    0.8290278   -3.7488863   -0.5038240
H   -9.7093978   -1.8457909    0.2075771
H   -2.8865039    3.9086202   -0.7229540
H    1.5306643   -2.3393546   -1.3804611
$end

$rem
JOBTYPE        opt
METHOD         wB97X-D
BASIS          6-311G(d,p)
$end
--------------------------------------------------------------
 ----------------------------------------------------------------
             Standard Nuclear Orientation (Angstroms)
    I     Atom           X                Y                Z
 ----------------------------------------------------------------
    1      C      -1.0344603082    -1.0621258544     0.0124018453
    2      C      -1.2488475666     0.3230852299     0.0480081347
    3      C       0.2727663798    -1.5915762496     0.0229443006
    4      C       3.9071465177    -1.3858861996     0.0233123236
    5      C      -3.7511274070     1.1746960273    -0.0745248358
    6      C       1.3592084222    -0.7021781122     0.0729444025
    7      C       1.1428502328     0.6779364003     0.1202472747
    8      C      -0.1589167492     1.2083265561     0.1069869586
    9      H      -1.8935489375    -1.7194129344    -0.0393241647
   10      O      -0.3856478450     2.5498866327     0.1385969862
   11      O       0.5122044914    -2.9298040763    -0.0306376333
   12      C       2.7259489100    -1.1523126326     0.0438085834
   13      C       5.3402211781    -1.5180937371     0.0005082531
   14      S       5.6078180204     1.2814999436     0.0445457978
   15      H       7.2955198580     3.0898976559    -0.0356333289
   16      C       6.1807854212    -0.3038515716    -0.0257342708
   17      O       5.8471002321    -2.6279548091    -0.0301054493
   18      H       9.1418539232     1.2532227607    -0.2071461223
   19      C       7.5672677693    -0.2661061590    -0.1223372635
   20      C       7.1132674579     2.0235125816    -0.0441594563
   21      H       8.1892580101    -1.1487681777    -0.1881826486
   22      C       8.0847818542     1.0357214893    -0.1338118697
   23      C      -2.6027855144     0.8126248451    -0.0191955503
   24      C      -5.1374910221     1.5612513690    -0.1373599241
   25      H       2.0029970428     1.3352073426     0.1539608857
   26      O      -5.4242783219     2.7373897979    -0.2941966567
   27      C      -6.1984578468     0.5386561283    -0.0658582022
   28      C      -7.5828564138    -1.5358472863     0.1653768922
   29      S      -5.9632810554    -1.0958782348     0.2729595433
   30      C      -8.3265675712    -0.4062165761    -0.1481151682
   31      C      -7.5561648532     0.7559205070    -0.2742235938
   32      H      -7.9798655402    -2.5313632881     0.3110469960
   33      H      -7.9801898857     1.7208109729    -0.5199043021
   34      C      -0.4444831713    -3.9149740158    -0.1757939146
   35      H      -0.9750579479    -3.7904251432    -1.1444416004
   36      H       0.0501576597    -4.9075147480    -0.1695530244
   37      C       0.5905327023     3.5264779764     0.1884703682
   38      H       1.2410362219     3.4660867976    -0.7108849683
   39      H       0.1106961458     4.5253879754     0.2106825684
   40      H      -9.3997873995    -0.4236515873    -0.2832687397
   41      H      -1.1721790068    -3.8793887669     0.6629643646
   42      H       1.2057794337     3.4095791434     1.1069689287
 ----------------------------------------------------------------
 Molecular Point Group                 C1    NOp =  1
 Largest Abelian Subgroup              C1    NOp =  1
 Nuclear Repulsion Energy =        2463.62538385 hartrees
 There are      105 alpha and      105 beta electrons
 Requested basis set is 6-311G(d,p)
 There are 210 shells and 604 basis functions

 Total QAlloc Memory Limit   8000 MB
 Mega-Array Size       188 MB
 MEM_STATIC part       192 MB
 A cutoff of  1.0D-11 yielded   9054 shell pairs
 There are     79033 function pairs (     85980 Cartesian)
 Smallest overlap matrix eigenvalue = 1.93E-05

 Scale SEOQF with 1.000000e-02/1.000000e-01/1.000000e+00

 Standard Electronic Orientation quadrupole field applied
 Nucleus-field energy     =     0.0000000618 hartrees
 Guess from superposition of atomic densities
 Warning:  Energy on first SCF cycle will be non-variational
 SAD guess density has 210.000000 electrons

 -----------------------------------------------------------------------
  General SCF calculation program by
  Eric Jon Sundstrom, Paul Horn, Yuezhi Mao, Dmitri Zuev, Alec White,
  David Stuck, Shaama M.S., Shane Yost, Joonho Lee, David Small,
  Daniel Levine, Susi Lehtola, Hugh Burton, Evgeny Epifanovsky,
  Bang C. Huynh
 -----------------------------------------------------------------------
 Exchange:     0.2220 Hartree-Fock + 1.0000 wB97X-D + LR-HF
 Correlation:  1.0000 wB97X-D
 Using SG-2 standard quadrature grid
 Dispersion:   Grimme D
 using 50 threads for integral computing
 -------------------------------------------------------
 OpenMP Integral computing Module                
 Release: version 1.0, May 2013, Q-Chem Inc. Pittsburgh 
 -------------------------------------------------------
 using 50 threads for integral computing
 -------------------------------------------------------
 OpenMP Integral computing Module                
 Release: version 1.0, May 2013, Q-Chem Inc. Pittsburgh 
 -------------------------------------------------------
 A restricted SCF calculation will be
 performed using DIIS
 SCF converges when DIIS error is below 1.0e-08
 ---------------------------------------
  Cycle       Energy         DIIS error
 ---------------------------------------
    1   -1952.4037232263      2.98e-02  
    2   -1943.3387663144      2.94e-03  
    3   -1943.1274302788      4.11e-03  
    4   -1943.6850375251      5.44e-04  
    5   -1943.6954242918      2.43e-04  
    6   -1943.6976421651      6.71e-05  
    7   -1943.6978615125      2.39e-05  
    8   -1943.6978934743      1.12e-05  
    9   -1943.6979022303      4.88e-06  
   10   -1943.6979040913      1.85e-06  
   11   -1943.6979043719      5.52e-07  
   12   -1943.6979044022      2.32e-07  
   13   -1943.6979044083      8.38e-08  
   14   -1943.6979044092      3.85e-08  
   15   -1943.6979044094      1.54e-08  
   16   -1943.6979044093      8.45e-09  Convergence criterion met
 ---------------------------------------
 SCF time:   CPU 1537.11s  wall 45.00s 
 SCF   energy in the final basis set =    -1943.6979044093
 Total energy in the final basis set =    -1943.6979044093
 
 --------------------------------------------------------------
 
                    Orbital Energies (a.u.)
 --------------------------------------------------------------
 
 Alpha MOs
 -- Occupied --
-89.0580 -89.0570 -19.2893 -19.2887 -19.2365 -19.2365 -10.4049 -10.4047
-10.3812 -10.3803 -10.3542 -10.3538 -10.3427 -10.3420 -10.3338 -10.3328
-10.3307 -10.3296 -10.3205 -10.3190 -10.3170 -10.3168 -10.3064 -10.3055
-10.3037 -10.3028 -10.2996 -10.2991  -8.1052  -8.1042  -6.0536  -6.0527
 -6.0496  -6.0485  -6.0475  -6.0465  -1.1945  -1.1933  -1.1534  -1.1533
 -1.0152  -1.0143  -0.9965  -0.9339  -0.8945  -0.8881  -0.8784  -0.8586
 -0.8538  -0.8530  -0.8471  -0.8389  -0.7921  -0.7867  -0.7584  -0.7421
 -0.7142  -0.6862  -0.6831  -0.6661  -0.6565  -0.6499  -0.6367  -0.6260
 -0.6250  -0.6241  -0.6041  -0.5813  -0.5754  -0.5659  -0.5631  -0.5601
 -0.5545  -0.5371  -0.5308  -0.5295  -0.5253  -0.5244  -0.5209  -0.5068
 -0.4980  -0.4968  -0.4915  -0.4854  -0.4847  -0.4787  -0.4761  -0.4567
 -0.4389  -0.4377  -0.4262  -0.4236  -0.4214  -0.4090  -0.3832  -0.3827
 -0.3704  -0.3540  -0.3535  -0.3474  -0.3463  -0.3348  -0.3315  -0.3299
 -0.2942
 -- Virtual --
 -0.0421  -0.0134   0.0167   0.0532   0.0625   0.0867   0.0925   0.0936
  0.0980   0.1014   0.1058   0.1102   0.1220   0.1283   0.1292   0.1350
  0.1415   0.1475   0.1623   0.1632   0.1681   0.1732   0.1767   0.1799
  0.1842   0.1887   0.1911   0.1949   0.1957   0.2006   0.2047   0.2390
  0.2435   0.2474   0.2553   0.2654   0.2704   0.2787   0.2826   0.2852
  0.2887   0.3117   0.3183   0.3261   0.3283   0.3357   0.3393   0.3568
  0.3719   0.3739   0.3763   0.3818   0.3826   0.3838   0.3920   0.3957
  0.4026   0.4100   0.4127   0.4284   0.4295   0.4380   0.4477   0.4523
  0.4547   0.4585   0.4623   0.4687   0.4710   0.4738   0.4766   0.4803
  0.4851   0.4864   0.4884   0.4912   0.4988   0.5023   0.5046   0.5093
  0.5148   0.5231   0.5300   0.5328   0.5334   0.5472   0.5585   0.5612
  0.5662   0.5709   0.5747   0.5822   0.5854   0.5906   0.5922   0.5980
  0.6045   0.6117   0.6191   0.6228   0.6265   0.6298   0.6443   0.6469
  0.6502   0.6575   0.6598   0.6670   0.6690   0.6730   0.6757   0.6855
  0.6906   0.6925   0.7035   0.7081   0.7135   0.7195   0.7226   0.7229
  0.7252   0.7312   0.7395   0.7448   0.7585   0.7612   0.7653   0.7770
  0.7838   0.7842   0.7863   0.7906   0.8033   0.8073   0.8115   0.8165
  0.8260   0.8301   0.8319   0.8395   0.8439   0.8472   0.8540   0.8574
  0.8596   0.8637   0.8809   0.8911   0.9036   0.9105   0.9149   0.9412
  0.9480   0.9554   0.9704   0.9729   0.9792   0.9827   0.9864   0.9905
  0.9981   1.0004   1.0095   1.0121   1.0246   1.0337   1.0434   1.0550
  1.0636   1.0712   1.0793   1.0844   1.0893   1.0951   1.1102   1.1162
  1.1197   1.1239   1.1326   1.1352   1.1376   1.1389   1.1417   1.1458
  1.1477   1.1499   1.1603   1.1649   1.1756   1.1879   1.1903   1.2194
  1.2239   1.2262   1.2303   1.2465   1.2506   1.2695   1.3020   1.3068
  1.3252   1.3291   1.3582   1.3629   1.3712   1.3807   1.3838   1.3996
  1.4104   1.4124   1.4138   1.4210   1.4371   1.4404   1.4524   1.4572
  1.4869   1.4999   1.5007   1.5255   1.5337   1.5395   1.5432   1.5498
  1.5577   1.5639   1.5656   1.5691   1.5872   1.5889   1.6000   1.6034
  1.6064   1.6187   1.6249   1.6318   1.6354   1.6363   1.6397   1.6440
  1.6570   1.6628   1.6665   1.6712   1.6739   1.6784   1.6964   1.6997
  1.7104   1.7186   1.7349   1.7379   1.7434   1.7481   1.7537   1.7598
  1.7687   1.7754   1.7809   1.7915   1.7983   1.8026   1.8078   1.8107
  1.8139   1.8211   1.8337   1.8430   1.8616   1.8635   1.8761   1.8836
  1.8875   1.8962   1.9047   1.9252   1.9307   1.9364   1.9470   1.9509
  1.9556   1.9603   1.9741   1.9820   1.9898   1.9916   1.9998   2.0086
  2.0131   2.0210   2.0475   2.0589   2.0654   2.0840   2.0852   2.1058
  2.1098   2.1115   2.1274   2.1337   2.1379   2.1430   2.1510   2.1522
  2.1623   2.1681   2.1745   2.1970   2.2055   2.2164   2.2404   2.2695
  2.2776   2.2972   2.3046   2.3064   2.3382   2.3636   2.3702   2.3768
  2.3839   2.3909   2.3987   2.4071   2.4129   2.4355   2.4582   2.4613
  2.4658   2.4794   2.4872   2.5072   2.5101   2.5120   2.5204   2.5291
  2.5452   2.5628   2.5804   2.6111   2.6286   2.6309   2.6465   2.6667
  2.6792   2.6837   2.6953   2.6981   2.7239   2.7250   2.7289   2.7358
  2.7412   2.7416   2.7426   2.7542   2.7618   2.7640   2.7677   2.7710
  2.7759   2.7801   2.7883   2.8136   2.8517   2.8702   2.8765   2.8791
  2.8901   2.9384   2.9518   2.9550   2.9602   2.9681   2.9717   2.9828
  2.9921   3.0083   3.0132   3.0183   3.0475   3.0614   3.0625   3.0733
  3.0814   3.0885   3.0904   3.0963   3.1007   3.1064   3.1096   3.1204
  3.1610   3.1743   3.1771   3.1844   3.1892   3.2110   3.2319   3.2528
  3.2642   3.2699   3.2780   3.3303   3.3340   3.3461   3.3509   3.3821
  3.3843   3.4008   3.4023   3.4075   3.4077   3.4340   3.4385   3.4623
  3.4843   3.4873   3.5178   3.5552   3.5622   3.5934   3.6302   3.6364
  3.6556   3.6677   3.6846   3.7204   3.7549   3.7760   3.7962   3.8242
  3.8384   3.8401   3.8591   3.9008   3.9328   4.1036   4.1044   4.1475
  4.1699   4.2094   4.2206   4.2600   4.3095   4.3513   4.3597   4.4882
  4.5471   4.6065   4.9219   5.0036   5.0061   5.0234   5.0294   5.1733
  5.1764   5.3640   5.4269   5.7175   5.7222   5.9050   5.9591   7.9440
  7.9443  17.3177  17.3192  17.5571  17.5573  17.6284  17.6299  23.4646
 23.5764  23.6729  23.7194  23.7790  23.9246  23.9266  23.9499  23.9592
 23.9635  23.9832  23.9843  24.0133  24.1069  24.1542  24.1544  24.1661
 24.2240  24.2514  24.2534  25.2155  25.2287  50.0597  50.0662  50.1292
 50.1307 189.1788 189.1789
 --------------------------------------------------------------
 
          Ground-State Mulliken Net Atomic Charges

     Atom                 Charge (a.u.)
  ----------------------------------------
      1 C                    -0.081023
      2 C                    -0.205884
      3 C                     0.248109
      4 C                     0.030268
      5 C                     0.024229
      6 C                    -0.212806
      7 C                    -0.086901
      8 C                     0.248574
      9 H                     0.145676
     10 O                    -0.342393
     11 O                    -0.342628
     12 C                     0.083630
     13 C                     0.206496
     14 S                     0.370259
     15 H                     0.157776
     16 C                    -0.367747
     17 O                    -0.286925
     18 H                     0.123019
     19 C                    -0.020686
     20 C                    -0.317546
     21 H                     0.137169
     22 C                    -0.098862
     23 C                     0.084298
     24 C                     0.208492
     25 H                     0.159495
     26 O                    -0.286693
     27 C                    -0.359810
     28 C                    -0.305863
     29 S                     0.357867
     30 C                    -0.101340
     31 C                    -0.022786
     32 H                     0.158110
     33 H                     0.136982
     34 C                    -0.161014
     35 H                     0.118082
     36 H                     0.148018
     37 C                    -0.163237
     38 H                     0.116273
     39 H                     0.149002
     40 H                     0.122813
     41 H                     0.113939
     42 H                     0.115570
  ----------------------------------------
  Sum of atomic charges =     0.000000

 -----------------------------------------------------------------
                    Cartesian Multipole Moments
 -----------------------------------------------------------------
    Charge (ESU x 10^10)
                -0.0000
    Dipole Moment (Debye)
         X      -0.5517      Y       0.1385      Z       0.0767
       Tot       0.5740
    Quadrupole Moments (Debye-Ang)
        XX    -148.2784     XY      51.4416     YY    -164.3334
        XZ      -0.9445     YZ       1.2559     ZZ    -178.8278
    Octopole Moments (Debye-Ang^2)
       XXX     -74.7077    XXY      30.9317    XYY       0.8514
       YYY      -5.3386    XXZ     -13.9424    XYZ       3.1368
       YYZ       3.8522    XZZ      -0.3535    YZZ      -1.3077
       ZZZ      -0.6370
    Hexadecapole Moments (Debye-Ang^3)
      XXXX  -21280.2731   XXXY    1631.9410   XXYY   -4985.4354
      XYYY     548.5959   YYYY   -3140.0869   XXXZ      -5.7556
      XXYZ     -45.8279   XYYZ     -26.2145   YYYZ      24.9961
      XXZZ   -4647.6176   XYZZ     -55.7759   YYZZ    -625.3837
      XZZZ       7.1130   YZZZ       2.1444   ZZZZ    -233.4464
 -----------------------------------------------------------------
 Calculating analytic gradient of the SCF energy
 Gradient of SCF Energy
            1           2           3           4           5           6
    1  -0.0177229   0.0129889   0.0300366   0.0026750  -0.0026334  -0.0119252
    2   0.0007715  -0.0052376   0.0118237  -0.0123818   0.0118047   0.0079199
    3  -0.0000833   0.0025421   0.0026123  -0.0013075  -0.0026746   0.0015018
            7           8           9          10          11          12
    1   0.0157873  -0.0283622  -0.0006321   0.0392560  -0.0387922   0.0112274
    2  -0.0030736  -0.0135175  -0.0007346   0.0209534  -0.0214824  -0.0023727
    3   0.0000009  -0.0011637  -0.0000022   0.0012919  -0.0050095  -0.0014096
           13          14          15          16          17          18
    1  -0.0102521   0.0394266   0.0069874  -0.0232436  -0.0000965  -0.0001481
    2   0.0213986  -0.0237201   0.0014532   0.0054268  -0.0099919  -0.0003119
    3   0.0038752  -0.0033168  -0.0004809   0.0012181  -0.0012489  -0.0000199
           19          20          21          22          23          24
    1   0.0058872  -0.0251383   0.0032806  -0.0001242  -0.0105114   0.0067513
    2   0.0075045   0.0216670   0.0017597  -0.0126471   0.0021829  -0.0207905
    3  -0.0001022   0.0024391  -0.0004633  -0.0004344  -0.0024034   0.0064823
           25          26          27          28          29          30
    1   0.0007441   0.0007803   0.0216887   0.0195539  -0.0327921   0.0027468
    2   0.0008440   0.0090711  -0.0094647  -0.0248914   0.0302468   0.0123179
    3   0.0000409  -0.0022236   0.0043500   0.0076767  -0.0098387  -0.0023424
           31          32          33          34          35          36
    1  -0.0073512  -0.0071143  -0.0036914   0.0268908  -0.0007091   0.0008289
    2  -0.0068390   0.0000673  -0.0009066   0.0060042   0.0032650  -0.0145064
    3   0.0004115  -0.0008228  -0.0005694   0.0034407  -0.0084083  -0.0005592
           37          38          39          40          41          42
    1  -0.0274973   0.0022813  -0.0001576   0.0001257  -0.0029933   0.0019436
    2  -0.0047671  -0.0027192   0.0144476   0.0004219   0.0022305  -0.0032265
    3  -0.0008161  -0.0081390   0.0005239  -0.0002739   0.0076225   0.0080836
 Max gradient component =       3.943E-02
 RMS gradient           =       1.238E-02
 Gradient time:  CPU 209.68 s  wall 9.72 s
 Geometry Optimization Parameters
   NAtoms,    NIC,     NZ,  NCons,   NDum,   NFix, NCnnct, MaxDiis
       42     280       0       0       0       0       0       0


** GEOMETRY OPTIMIZATION IN DELOCALIZED INTERNAL COORDINATES **
   Searching for a Minimum

   Optimization Cycle:   1

                       Coordinates (Angstroms)
     ATOM                X               Y               Z
      1  C        -1.0344603082   -1.0621258544    0.0124018453
      2  C        -1.2488475666    0.3230852299    0.0480081347
      3  C         0.2727663798   -1.5915762496    0.0229443006
      4  C         3.9071465177   -1.3858861996    0.0233123236
      5  C        -3.7511274070    1.1746960273   -0.0745248358
      6  C         1.3592084222   -0.7021781122    0.0729444025
      7  C         1.1428502328    0.6779364003    0.1202472747
      8  C        -0.1589167492    1.2083265561    0.1069869586
      9  H        -1.8935489375   -1.7194129344   -0.0393241647
     10  O        -0.3856478450    2.5498866327    0.1385969862
     11  O         0.5122044914   -2.9298040763   -0.0306376333
     12  C         2.7259489100   -1.1523126326    0.0438085834
     13  C         5.3402211781   -1.5180937371    0.0005082531
     14  S         5.6078180204    1.2814999436    0.0445457978
     15  H         7.2955198580    3.0898976559   -0.0356333289
     16  C         6.1807854212   -0.3038515716   -0.0257342708
     17  O         5.8471002321   -2.6279548091   -0.0301054493
     18  H         9.1418539232    1.2532227607   -0.2071461223
     19  C         7.5672677693   -0.2661061590   -0.1223372635
     20  C         7.1132674579    2.0235125816   -0.0441594563
     21  H         8.1892580101   -1.1487681777   -0.1881826486
     22  C         8.0847818542    1.0357214893   -0.1338118697
     23  C        -2.6027855144    0.8126248451   -0.0191955503
     24  C        -5.1374910221    1.5612513690   -0.1373599241
     25  H         2.0029970428    1.3352073426    0.1539608857
     26  O        -5.4242783219    2.7373897979   -0.2941966567
     27  C        -6.1984578468    0.5386561283   -0.0658582022
     28  C        -7.5828564138   -1.5358472863    0.1653768922
     29  S        -5.9632810554   -1.0958782348    0.2729595433
     30  C        -8.3265675712   -0.4062165761   -0.1481151682
     31  C        -7.5561648532    0.7559205070   -0.2742235938
     32  H        -7.9798655402   -2.5313632881    0.3110469960
     33  H        -7.9801898857    1.7208109729   -0.5199043021
     34  C        -0.4444831713   -3.9149740158   -0.1757939146
     35  H        -0.9750579479   -3.7904251432   -1.1444416004
     36  H         0.0501576597   -4.9075147480   -0.1695530244
     37  C         0.5905327023    3.5264779764    0.1884703682
     38  H         1.2410362219    3.4660867976   -0.7108849683
     39  H         0.1106961458    4.5253879754    0.2106825684
     40  H        -9.3997873995   -0.4236515873   -0.2832687397
     41  H        -1.1721790068   -3.8793887669    0.6629643646
     42  H         1.2057794337    3.4095791434    1.1069689287
   Point Group: c1    Number of degrees of freedom:   120


   Energy is  -1943.697904409


 Attempting to generate delocalized internal coordinates
 Initial Hessian constructed with Jon Baker's OPTIMIZE code

120 Hessian modes will be used to form the next step
  Hessian Eigenvalues:
     0.002000    0.002000    0.007357    0.007669    0.012217    0.012448
     0.015486    0.016557    0.017055    0.017149    0.018064    0.018172
     0.018733    0.018777    0.020811    0.020866    0.021008    0.021037
     0.021290    0.021412    0.021573    0.021603    0.021842    0.022106
     0.022290    0.022759    0.022801    0.022906    0.022966    0.023329
     0.023365    0.103638    0.103764    0.105297    0.105579    0.145276
     0.147415    0.159979    0.159985    0.159988    0.159996    0.159998
     0.159999    0.160000    0.160000    0.160000    0.160000    0.160000
     0.160000    0.160000    0.160000    0.193524    0.194133    0.200000
     0.200000    0.200000    0.200000    0.221321    0.221322    0.229994
     0.238404    0.238406    0.239667    0.249855    0.249893    0.249898
     0.249942    0.249975    0.249981    0.249989    0.249990    0.249993
     0.250000    0.250000    0.250000    0.250000    0.324227    0.324318
     0.324480    0.324943    0.327078    0.327697    0.349117    0.351151
     0.356285    0.356427    0.357291    0.357681    0.357733    0.357772
     0.357891    0.358001    0.360807    0.362352    0.366840    0.367935
     0.394092    0.395009    0.396760    0.396880    0.408600    0.415097
     0.439776    0.441121    0.442813    0.445580    0.445825    0.447739
     0.449529    0.457236    0.471707    0.471757    0.487894    0.489383
     0.527556    0.528395    0.950670    0.951558    1.021847    1.027190

 Minimum search - taking simple RFO step
 Searching for Lamda that Minimizes Along All modes
 Value Taken    Lamda =  -0.03485332
 Calculated Step too Large.  Step scaled by  0.851238
 Step Taken.  Stepsize is  0.300000

                             Maximum     Tolerance    Cnvgd?
         Gradient           0.043460      0.000300      NO
         Displacement       0.099989      0.001200      NO
         Energy change     *********      0.000001      NO


 New Cartesian Coordinates Obtained by Inverse Iteration

 Displacement from previous Coordinates is:  1.173686
 ----------------------------------------------------------------
             Standard Nuclear Orientation (Angstroms)
    I     Atom           X                Y                Z
 ----------------------------------------------------------------
    1      C      -1.0237197604    -1.0325602683    -0.0331565990
    2      C      -1.2582301557     0.3443949001     0.0032038421
    3      C       0.2755210795    -1.5361880900    -0.0189310277
    4      C       3.8820309745    -1.3618839767     0.0081889693
    5      C      -3.7499881309     1.1851407476    -0.0974231940
    6      C       1.3530632106    -0.6445285294     0.0327606139
    7      C       1.1180879659     0.7317954161     0.0783128441
    8      C      -0.1802042101     1.2360157877     0.0637393651
    9      H      -1.8725762979    -1.7014396214    -0.0823225726
   10      O      -0.4599876834     2.5496554997     0.0985410723
   11      O       0.5572693728    -2.8489082790    -0.0605581706
   12      C       2.7059537142    -1.1016766271     0.0188484286
   13      C       5.3140028218    -1.5482399049    -0.0061368716
   14      S       5.5245002634     1.2532480465     0.0538626725
   15      H       7.2366871679     3.0057763918     0.0119221973
   16      C       6.1490615654    -0.3368741898    -0.0113916753
   17      O       5.8162565122    -2.6560067208    -0.0182154728
   18      H       9.1117607768     1.1946202162    -0.1219494213
   19      C       7.5289503030    -0.3265400035    -0.0768818860
   20      C       7.0728081392     1.9395273751    -0.0044551549
   21      H       8.1257527234    -1.2267038292    -0.1282368467
   22      C       8.0541943990     0.9713959254    -0.0737645560
   23      C      -2.6020137219     0.8238384236    -0.0500146023
   24      C      -5.1383971035     1.5795935245    -0.1542092196
   25      H       1.9678194566     1.4001723459     0.1166427592
   26      O      -5.4569853560     2.7462269425    -0.2874816282
   27      C      -6.1559324659     0.5223688338    -0.0592301116
   28      C      -7.4373631009    -1.5578691822     0.1894169649
   29      S      -5.8028038306    -1.1168758540     0.2681849856
   30      C      -8.2427114855    -0.4713427956    -0.0872464974
   31      C      -7.5137479406     0.7157597068    -0.2270710374
   32      H      -7.7740662963    -2.5715206011     0.3410569458
   33      H      -7.9519200055     1.6790440864    -0.4492112382
   34      C      -0.4695176420    -3.7819917618    -0.1910192155
   35      H      -1.0177081536    -3.6570605158    -1.1380745329
   36      H       0.0062393134    -4.7653109903    -0.1877941474
   37      C       0.5727310431     3.4840608578     0.1516628546
   38      H       1.2221851945     3.4287451096    -0.7362458249
   39      H       0.0967257125     4.4666719534     0.1769519890
   40      H      -9.3182774244    -0.5341176446    -0.1863962052
   41      H      -1.1802486099    -3.7328848430     0.6487356310
   42      H       1.1880011861     3.3663201105     1.0577282927
 ----------------------------------------------------------------
 Molecular Point Group                 C1    NOp =  1
 Largest Abelian Subgroup              C1    NOp =  1
 Nuclear Repulsion Energy =        2481.17253299 hartrees
 There are      105 alpha and      105 beta electrons
 Applying Cartesian multipole field
    Component          Value
    ---------          -----
     (2,0,0)        1.00000E-12
     (0,2,0)        2.00000E-11
     (0,0,2)       -3.00000E-10
 Nucleus-field energy     =     0.0000000610 hartrees
 Requested basis set is 6-311G(d,p)
 There are 210 shells and 604 basis functions
 A cutoff of  1.0D-11 yielded   9195 shell pairs
 There are     80039 function pairs (     87073 Cartesian)
 Smallest overlap matrix eigenvalue = 1.76E-05
 Guess MOs from SCF MO coefficient file

 -----------------------------------------------------------------------
  General SCF calculation program by
  Eric Jon Sundstrom, Paul Horn, Yuezhi Mao, Dmitri Zuev, Alec White,
  David Stuck, Shaama M.S., Shane Yost, Joonho Lee, David Small,
  Daniel Levine, Susi Lehtola, Hugh Burton, Evgeny Epifanovsky,
  Bang C. Huynh
 -----------------------------------------------------------------------
 Exchange:     0.2220 Hartree-Fock + 1.0000 wB97X-D + LR-HF
 Correlation:  1.0000 wB97X-D
 Using SG-2 standard quadrature grid
 Dispersion:   Grimme D
 using 50 threads for integral computing
 -------------------------------------------------------
 OpenMP Integral computing Module                
 Release: version 1.0, May 2013, Q-Chem Inc. Pittsburgh 
 -------------------------------------------------------
 using 50 threads for integral computing
 -------------------------------------------------------
 OpenMP Integral computing Module                
 Release: version 1.0, May 2013, Q-Chem Inc. Pittsburgh 
 -------------------------------------------------------
 A restricted SCF calculation will be
 performed using DIIS
 SCF converges when DIIS error is below 1.0e-08
 ---------------------------------------
  Cycle       Energy         DIIS error
 ---------------------------------------
    1   -1943.7035575741      4.48e-04  
    2   -1943.7152573905      1.24e-04  
    3   -1943.7155113702      1.43e-04  
    4   -1943.7162140955      2.55e-05  
    5   -1943.7162426531      1.17e-05  
    6   -1943.7162500595      3.27e-06  
    7   -1943.7162508688      1.63e-06  
    8   -1943.7162510854      6.54e-07  
    9   -1943.7162511315      2.98e-07  
   10   -1943.7162511391      1.12e-07  
   11   -1943.7162511409      4.16e-08  
   12   -1943.7162511406      1.44e-08  
   13   -1943.7162511406      7.07e-09  Convergence criterion met
 ---------------------------------------
 SCF time:   CPU 1231.72s  wall 36.00s 
 SCF   energy in the final basis set =    -1943.7162511406
 Total energy in the final basis set =    -1943.7162511406
 
 --------------------------------------------------------------
 
                    Orbital Energies (a.u.)
 --------------------------------------------------------------
 
 Alpha MOs
 -- Occupied --
-89.0590 -89.0582 -19.2930 -19.2927 -19.2353 -19.2352 -10.4016 -10.4014
-10.3740 -10.3738 -10.3500 -10.3496 -10.3376 -10.3376 -10.3325 -10.3319
-10.3282 -10.3275 -10.3165 -10.3162 -10.3152 -10.3145 -10.3060 -10.3055
-10.3036 -10.3031 -10.2981 -10.2979  -8.1056  -8.1048  -6.0540  -6.0533
 -6.0502  -6.0494  -6.0477  -6.0469  -1.2017  -1.2006  -1.1536  -1.1536
 -1.0109  -1.0103  -0.9978  -0.9352  -0.8950  -0.8865  -0.8787  -0.8577
 -0.8558  -0.8549  -0.8452  -0.8416  -0.7970  -0.7877  -0.7573  -0.7423
 -0.7135  -0.6849  -0.6830  -0.6696  -0.6551  -0.6481  -0.6378  -0.6286
 -0.6271  -0.6265  -0.6054  -0.5843  -0.5777  -0.5641  -0.5577  -0.5556
 -0.5541  -0.5362  -0.5277  -0.5271  -0.5245  -0.5236  -0.5151  -0.5076
 -0.4970  -0.4962  -0.4911  -0.4856  -0.4850  -0.4768  -0.4742  -0.4605
 -0.4485  -0.4473  -0.4385  -0.4317  -0.4248  -0.4126  -0.3811  -0.3805
 -0.3718  -0.3539  -0.3535  -0.3496  -0.3484  -0.3349  -0.3294  -0.3282
 -0.2931
 -- Virtual --
 -0.0422  -0.0122   0.0168   0.0590   0.0628   0.0855   0.0863   0.0899
  0.0971   0.0990   0.1057   0.1103   0.1245   0.1313   0.1315   0.1381
  0.1452   0.1497   0.1637   0.1643   0.1766   0.1772   0.1794   0.1819
  0.1854   0.1893   0.1938   0.1957   0.1963   0.2033   0.2068   0.2419
  0.2456   0.2521   0.2582   0.2687   0.2744   0.2827   0.2849   0.2862
  0.2929   0.3149   0.3229   0.3308   0.3324   0.3349   0.3406   0.3568
  0.3724   0.3733   0.3766   0.3826   0.3833   0.3839   0.3949   0.4062
  0.4099   0.4151   0.4170   0.4338   0.4362   0.4382   0.4482   0.4500
  0.4571   0.4586   0.4642   0.4719   0.4728   0.4769   0.4797   0.4839
  0.4854   0.4895   0.4918   0.4930   0.5007   0.5015   0.5057   0.5156
  0.5169   0.5312   0.5323   0.5327   0.5374   0.5398   0.5624   0.5631
  0.5683   0.5709   0.5778   0.5840   0.5866   0.5927   0.5969   0.6030
  0.6081   0.6116   0.6202   0.6281   0.6315   0.6345   0.6472   0.6492
  0.6552   0.6595   0.6632   0.6690   0.6715   0.6750   0.6768   0.6847
  0.6907   0.6918   0.7060   0.7146   0.7167   0.7232   0.7249   0.7287
  0.7310   0.7336   0.7409   0.7499   0.7621   0.7643   0.7691   0.7825
  0.7885   0.7890   0.7908   0.7953   0.8065   0.8094   0.8144   0.8255
  0.8292   0.8338   0.8360   0.8456   0.8495   0.8518   0.8584   0.8638
  0.8663   0.8697   0.8883   0.9024   0.9105   0.9187   0.9261   0.9451
  0.9509   0.9639   0.9752   0.9781   0.9811   0.9861   0.9904   0.9977
  1.0011   1.0059   1.0082   1.0130   1.0233   1.0295   1.0427   1.0515
  1.0620   1.0760   1.0801   1.0858   1.0899   1.1001   1.1079   1.1118
  1.1193   1.1236   1.1359   1.1383   1.1400   1.1439   1.1457   1.1469
  1.1482   1.1493   1.1587   1.1690   1.1764   1.1924   1.1946   1.2183
  1.2237   1.2282   1.2311   1.2467   1.2531   1.2703   1.2946   1.3038
  1.3099   1.3157   1.3603   1.3662   1.3718   1.3807   1.3960   1.4071
  1.4108   1.4130   1.4153   1.4243   1.4366   1.4409   1.4542   1.4630
  1.4932   1.5088   1.5096   1.5359   1.5380   1.5428   1.5483   1.5620
  1.5652   1.5690   1.5717   1.5831   1.5931   1.5939   1.6047   1.6100
  1.6116   1.6175   1.6309   1.6338   1.6358   1.6424   1.6452   1.6490
  1.6623   1.6647   1.6699   1.6747   1.6791   1.6850   1.7011   1.7026
  1.7103   1.7195   1.7284   1.7358   1.7447   1.7499   1.7578   1.7640
  1.7709   1.7783   1.7801   1.7920   1.7961   1.8029   1.8099   1.8113
  1.8158   1.8255   1.8327   1.8429   1.8698   1.8712   1.8806   1.8865
  1.8919   1.8996   1.9104   1.9290   1.9367   1.9457   1.9516   1.9543
  1.9604   1.9687   1.9810   1.9900   1.9906   1.9983   2.0061   2.0082
  2.0111   2.0274   2.0579   2.0633   2.0793   2.0865   2.0915   2.1019
  2.1050   2.1093   2.1349   2.1407   2.1461   2.1517   2.1579   2.1622
  2.1678   2.1750   2.1776   2.2036   2.2179   2.2270   2.2485   2.2694
  2.2791   2.3018   2.3114   2.3126   2.3520   2.3819   2.3838   2.3926
  2.4002   2.4046   2.4105   2.4166   2.4242   2.4466   2.4628   2.4680
  2.4752   2.4867   2.4957   2.5149   2.5173   2.5231   2.5298   2.5618
  2.5638   2.5878   2.6074   2.6156   2.6447   2.6490   2.6509   2.6782
  2.6834   2.6908   2.6963   2.6986   2.7185   2.7202   2.7348   2.7385
  2.7397   2.7451   2.7524   2.7556   2.7631   2.7698   2.7725   2.7741
  2.7828   2.7843   2.7927   2.8314   2.8591   2.8763   2.8778   2.8847
  2.8958   2.9322   2.9618   2.9655   2.9697   2.9761   2.9836   2.9943
  3.0033   3.0119   3.0175   3.0236   3.0649   3.0655   3.0682   3.0825
  3.0841   3.0915   3.0941   3.1119   3.1240   3.1306   3.1335   3.1505
  3.1718   3.1843   3.1878   3.1950   3.2010   3.2259   3.2479   3.2638
  3.2780   3.2858   3.2897   3.3442   3.3469   3.3482   3.3505   3.4002
  3.4027   3.4123   3.4125   3.4150   3.4264   3.4373   3.4437   3.4716
  3.5041   3.5328   3.5380   3.5581   3.5641   3.6139   3.6340   3.6396
  3.6735   3.6783   3.7010   3.7260   3.7697   3.7898   3.8002   3.8354
  3.8368   3.8420   3.8847   3.9147   3.9474   4.1077   4.1082   4.1675
  4.1905   4.2096   4.2222   4.2265   4.3132   4.3291   4.3571   4.4928
  4.5454   4.6115   4.9405   5.0048   5.0093   5.0197   5.0233   5.1785
  5.1800   5.4183   5.4821   5.7259   5.7313   5.8915   5.9509   7.9305
  7.9307  17.3176  17.3188  17.5405  17.5415  17.6205  17.6218  23.4735
 23.5885  23.6786  23.7248  23.8001  23.9313  23.9329  23.9755  23.9862
 23.9886  23.9953  23.9985  24.0374  24.1386  24.1801  24.1806  24.1978
 24.2578  24.2738  24.2740  25.2278  25.2444  50.0628  50.0701  50.1344
 50.1357 189.1602 189.1604
 --------------------------------------------------------------
 
          Ground-State Mulliken Net Atomic Charges

     Atom                 Charge (a.u.)
  ----------------------------------------
      1 C                    -0.080769
      2 C                    -0.225192
      3 C                     0.242869
      4 C                     0.007926
      5 C                     0.002374
      6 C                    -0.228889
      7 C                    -0.084502
      8 C                     0.241503
      9 H                     0.145976
     10 O                    -0.324114
     11 O                    -0.324600
     12 C                     0.094998
     13 C                     0.213797
     14 S                     0.363182
     15 H                     0.154845
     16 C                    -0.363786
     17 O                    -0.286660
     18 H                     0.123592
     19 C                    -0.013886
     20 C                    -0.318101
     21 H                     0.138724
     22 C                    -0.089773
     23 C                     0.096137
     24 C                     0.218698
     25 H                     0.157036
     26 O                    -0.286739
     27 C                    -0.357187
     28 C                    -0.307518
     29 S                     0.351975
     30 C                    -0.092503
     31 C                    -0.015358
     32 H                     0.155335
     33 H                     0.138499
     34 C                    -0.176211
     35 H                     0.122788
     36 H                     0.149994
     37 C                    -0.177855
     38 H                     0.120732
     39 H                     0.150669
     40 H                     0.123511
     41 H                     0.118432
     42 H                     0.120050
  ----------------------------------------
  Sum of atomic charges =     0.000000

 -----------------------------------------------------------------
                    Cartesian Multipole Moments
 -----------------------------------------------------------------
    Charge (ESU x 10^10)
                -0.0000
    Dipole Moment (Debye)
         X      -0.4764      Y       0.1158      Z       0.1119
       Tot       0.5029
    Quadrupole Moments (Debye-Ang)
        XX    -149.2257     XY      50.8406     YY    -165.4036
        XZ      -0.9091     YZ       1.2639     ZZ    -178.7333
    Octopole Moments (Debye-Ang^2)
       XXX     -59.5226    XXY      25.8869    XYY      -1.2779
       YYY      -3.7842    XXZ      -7.2080    XYZ       3.6027
       YYZ       4.8096    XZZ      -0.9092    YZZ      -1.1942
       ZZZ       1.4106
    Hexadecapole Moments (Debye-Ang^3)
      XXXX  -20892.9484   XXXY    1545.7617   XXYY   -4937.7083
      XYYY     576.5185   YYYY   -3108.4612   XXXZ      -9.0872
      XXYZ     -34.7532   XYYZ     -28.2288   YYYZ      22.9775
      XXZZ   -4566.8642   XYZZ     -43.0533   YYZZ    -608.6977
      XZZZ      -1.2298   YZZZ       1.3604   ZZZZ    -229.1171
 -----------------------------------------------------------------
 Calculating analytic gradient of the SCF energy
 Gradient of SCF Energy
            1           2           3           4           5           6
    1  -0.0048272   0.0070370   0.0126638   0.0021303  -0.0016576  -0.0065942
    2   0.0001712   0.0006526   0.0028902  -0.0050258   0.0045470   0.0003657
    3   0.0000538   0.0015802   0.0008149  -0.0001657  -0.0006953   0.0005012
            7           8           9          10          11          12
    1   0.0048223  -0.0125928   0.0000570   0.0150233  -0.0153309   0.0037340
    2  -0.0006256  -0.0032907  -0.0012770   0.0046586  -0.0041100  -0.0019925
    3  -0.0000225  -0.0005577   0.0000758   0.0003654  -0.0012843  -0.0008180
           13          14          15          16          17          18
    1  -0.0055621   0.0116572   0.0035253  -0.0103880   0.0019250   0.0005295
    2   0.0126979  -0.0083532  -0.0010620   0.0073454  -0.0042568  -0.0008889
    3   0.0000313  -0.0005524  -0.0002559   0.0008409   0.0001789  -0.0000694
           19          20          21          22          23          24
    1   0.0079924  -0.0171638   0.0025162   0.0023659  -0.0040521   0.0038767
    2   0.0046596   0.0062940   0.0012484  -0.0122831   0.0007961  -0.0121276
    3  -0.0001701   0.0009934  -0.0002884  -0.0004328  -0.0013695   0.0013115
           25          26          27          28          29          30
    1   0.0000255  -0.0012701   0.0093137   0.0156836  -0.0101936  -0.0002899
    2   0.0011666   0.0045307  -0.0089193  -0.0087187   0.0100896   0.0121049
    3   0.0000596  -0.0001071   0.0029064   0.0032048  -0.0024491  -0.0022638
           31          32          33          34          35          36
    1  -0.0086622  -0.0034041  -0.0026845   0.0115940  -0.0012394   0.0003285
    2  -0.0032057   0.0015449  -0.0008211   0.0082618  -0.0002901  -0.0028929
    3  -0.0002974  -0.0006897  -0.0003924   0.0011259  -0.0025904   0.0000387
           37          38          39          40          41          42
    1  -0.0117505   0.0017630  -0.0002924  -0.0003566  -0.0019521   0.0017000
    2  -0.0079586   0.0003380   0.0027587   0.0010160  -0.0002259   0.0001875
    3  -0.0005385  -0.0022346   0.0001459  -0.0003204   0.0019820   0.0023548
 Max gradient component =       1.716E-02
 RMS gradient           =       5.550E-03
 Gradient time:  CPU 207.02 s  wall 8.55 s
 Geometry Optimization Parameters
   NAtoms,    NIC,     NZ,  NCons,   NDum,   NFix, NCnnct, MaxDiis
       42     280       0       0       0       0       0       0

 Cartesian Hessian Update
 Hessian updated using BFGS update


** GEOMETRY OPTIMIZATION IN DELOCALIZED INTERNAL COORDINATES **
   Searching for a Minimum

   Optimization Cycle:   2

                       Coordinates (Angstroms)
     ATOM                X               Y               Z
      1  C        -1.0237197604   -1.0325602683   -0.0331565990
      2  C        -1.2582301557    0.3443949001    0.0032038421
      3  C         0.2755210795   -1.5361880900   -0.0189310277
      4  C         3.8820309745   -1.3618839767    0.0081889693
      5  C        -3.7499881309    1.1851407476   -0.0974231940
      6  C         1.3530632106   -0.6445285294    0.0327606139
      7  C         1.1180879659    0.7317954161    0.0783128441
      8  C        -0.1802042101    1.2360157877    0.0637393651
      9  H        -1.8725762979   -1.7014396214   -0.0823225726
     10  O        -0.4599876834    2.5496554997    0.0985410723
     11  O         0.5572693728   -2.8489082790   -0.0605581706
     12  C         2.7059537142   -1.1016766271    0.0188484286
     13  C         5.3140028218   -1.5482399049   -0.0061368716
     14  S         5.5245002634    1.2532480465    0.0538626725
     15  H         7.2366871679    3.0057763918    0.0119221973
     16  C         6.1490615654   -0.3368741898   -0.0113916753
     17  O         5.8162565122   -2.6560067208   -0.0182154728
     18  H         9.1117607768    1.1946202162   -0.1219494213
     19  C         7.5289503030   -0.3265400035   -0.0768818860
     20  C         7.0728081392    1.9395273751   -0.0044551549
     21  H         8.1257527234   -1.2267038292   -0.1282368467
     22  C         8.0541943990    0.9713959254   -0.0737645560
     23  C        -2.6020137219    0.8238384236   -0.0500146023
     24  C        -5.1383971035    1.5795935245   -0.1542092196
     25  H         1.9678194566    1.4001723459    0.1166427592
     26  O        -5.4569853560    2.7462269425   -0.2874816282
     27  C        -6.1559324659    0.5223688338   -0.0592301116
     28  C        -7.4373631009   -1.5578691822    0.1894169649
     29  S        -5.8028038306   -1.1168758540    0.2681849856
     30  C        -8.2427114855   -0.4713427956   -0.0872464974
     31  C        -7.5137479406    0.7157597068   -0.2270710374
     32  H        -7.7740662963   -2.5715206011    0.3410569458
     33  H        -7.9519200055    1.6790440864   -0.4492112382
     34  C        -0.4695176420   -3.7819917618   -0.1910192155
     35  H        -1.0177081536   -3.6570605158   -1.1380745329
     36  H         0.0062393134   -4.7653109903   -0.1877941474
     37  C         0.5727310431    3.4840608578    0.1516628546
     38  H         1.2221851945    3.4287451096   -0.7362458249
     39  H         0.0967257125    4.4666719534    0.1769519890
     40  H        -9.3182774244   -0.5341176446   -0.1863962052
     41  H        -1.1802486099   -3.7328848430    0.6487356310
     42  H         1.1880011861    3.3663201105    1.0577282927
   Point Group: c1    Number of degrees of freedom:   120


   Energy is  -1943.716251141

 Hessian updated using BFGS update

112 Hessian modes will be used to form the next step
  Hessian Eigenvalues:
     0.002000    0.002000    0.007392    0.007705    0.012215    0.012441
     0.015485    0.016557    0.017055    0.017149    0.018064    0.018167
     0.018733    0.018780    0.020811    0.020854    0.021008    0.021037
     0.021292    0.021411    0.021574    0.021604    0.021840    0.022105
     0.022288    0.022759    0.022801    0.022906    0.022966    0.023329
     0.023365    0.103686    0.104266    0.105297    0.105578    0.145275
     0.147437    0.150767    0.159979    0.159985    0.159990    0.159997
     0.159999    0.160000    0.160000    0.160000    0.164366    0.193368
     0.194110    0.195250    0.200005    0.219990    0.221326    0.228578
     0.230885    0.238408    0.239669    0.244906    0.249856    0.249893
     0.249900    0.249943    0.249979    0.249985    0.249990    0.249993
     0.249996    0.282068    0.319255    0.324267    0.324412    0.324804
     0.326902    0.327563    0.348222    0.350013    0.353337    0.356303
     0.356453    0.357296    0.357731    0.357774    0.357821    0.357902
     0.358745    0.361589    0.365372    0.367514    0.392428    0.395178
     0.396159    0.397027    0.408618    0.415107    0.437057    0.440454
     0.444737    0.445538    0.445852    0.449028    0.453850    0.457766
     0.471732    0.474428    0.484396    0.488730    0.527942    0.568041
     0.948244    0.951178    1.022007    1.027178

 Minimum search - taking simple RFO step
 Searching for Lamda that Minimizes Along All modes
 Value Taken    Lamda =  -0.00631777
 Step Taken.  Stepsize is  0.206097

                             Maximum     Tolerance    Cnvgd?
         Gradient           0.016565      0.000300      NO
         Displacement       0.063909      0.001200      NO
         Energy change     -0.018347      0.000001      NO


 New Cartesian Coordinates Obtained by Inverse Iteration

 Displacement from previous Coordinates is:  1.108284
 ----------------------------------------------------------------
             Standard Nuclear Orientation (Angstroms)
    I     Atom           X                Y                Z
 ----------------------------------------------------------------
    1      C      -1.0242333376    -0.9984917948    -0.1048107637
    2      C      -1.2717784949     0.3764373990    -0.0637097090
    3      C       0.2723339331    -1.4921088563    -0.0856471060
    4      C       3.8547939492    -1.3363149172     0.0002878196
    5      C      -3.7603267938     1.2086010220    -0.1186782651
    6      C       1.3412546873    -0.5842387882    -0.0264439891
    7      C       1.0940554213     0.7915224872     0.0194895446
    8      C      -0.2027386793     1.2850823455     0.0029507281
    9      H      -1.8722677932    -1.6660875057    -0.1535246966
   10      O      -0.5331796327     2.5870092558     0.0474517678
   11      O       0.6037946159    -2.7948692717    -0.1150480234
   12      C       2.6855811871    -1.0452814393    -0.0121219904
   13      C       5.2824738153    -1.5892504659     0.0141175524
   14      S       5.5350960559     1.2271259583     0.0469481485
   15      H       7.2771157452     2.9360570240     0.0439036850
   16      C       6.1417499554    -0.3909089997     0.0162236191
   17      O       5.7483934154    -2.7088466608     0.0061191207
   18      H       9.1338436302     1.0976669572    -0.0187273674
   19      C       7.5120377949    -0.4065561959    -0.0097880146
   20      C       7.1176312511     1.8683408288     0.0293082892
   21      H       8.0697601910    -1.3317959936    -0.0308796200
   22      C       8.0728400034     0.8896595798    -0.0021781940
   23      C      -2.6115385776     0.8473261301    -0.0913568555
   24      C      -5.1528683865     1.6120508021    -0.1506909296
   25      H       1.9419840578     1.4591297649     0.0681632963
   26      O      -5.4856914196     2.7720107643    -0.2735075128
   27      C      -6.1418223418     0.5246715950    -0.0461071786
   28      C      -7.3628723870    -1.5959103123     0.2022910164
   29      S      -5.7207169575    -1.1289528817     0.2217817067
   30      C      -8.2011795714    -0.5347978391    -0.0058968711
   31      C      -7.4996009852     0.6825211067    -0.1480517693
   32      H      -7.6405967725    -2.6290306429     0.3469807727
   33      H      -7.9490007057     1.6501879227    -0.3184552085
   34      C      -0.4293435940    -3.7468241552    -0.2065973007
   35      H      -1.0124842837    -3.6253883449    -1.1254078516
   36      H       0.0614604644    -4.7151766867    -0.2212964021
   37      C       0.5028821051     3.5378636715     0.1105645476
   38      H       1.1497954572     3.4920301621    -0.7717531686
   39      H       0.0131046982     4.5064209319     0.1415964996
   40      H      -9.2772142814    -0.6308476476    -0.0532622602
   41      H      -1.1019877003    -3.7019930206     0.6562382752
   42      H       1.1126637819     3.4158046841     1.0118673774
 ----------------------------------------------------------------
 Molecular Point Group                 C1    NOp =  1
 Largest Abelian Subgroup              C1    NOp =  1
 Nuclear Repulsion Energy =        2483.35991472 hartrees
 There are      105 alpha and      105 beta electrons
 Applying Cartesian multipole field
    Component          Value
    ---------          -----
     (2,0,0)        1.00000E-12
     (0,2,0)        2.00000E-11
     (0,0,2)       -3.00000E-10
 Nucleus-field energy     =     0.0000000619 hartrees
 Requested basis set is 6-311G(d,p)
 There are 210 shells and 604 basis functions
 A cutoff of  1.0D-11 yielded   9206 shell pairs
 There are     80081 function pairs (     87129 Cartesian)
 Smallest overlap matrix eigenvalue = 1.69E-05
 Guess MOs from SCF MO coefficient file

 -----------------------------------------------------------------------
  General SCF calculation program by
  Eric Jon Sundstrom, Paul Horn, Yuezhi Mao, Dmitri Zuev, Alec White,
  David Stuck, Shaama M.S., Shane Yost, Joonho Lee, David Small,
  Daniel Levine, Susi Lehtola, Hugh Burton, Evgeny Epifanovsky,
  Bang C. Huynh
 -----------------------------------------------------------------------
 Exchange:     0.2220 Hartree-Fock + 1.0000 wB97X-D + LR-HF
 Correlation:  1.0000 wB97X-D
 Using SG-2 standard quadrature grid
 Dispersion:   Grimme D
 using 50 threads for integral computing
 -------------------------------------------------------
 OpenMP Integral computing Module                
 Release: version 1.0, May 2013, Q-Chem Inc. Pittsburgh 
 -------------------------------------------------------
 using 50 threads for integral computing
 -------------------------------------------------------
 OpenMP Integral computing Module                
 Release: version 1.0, May 2013, Q-Chem Inc. Pittsburgh 
 -------------------------------------------------------
 A restricted SCF calculation will be
 performed using DIIS
 SCF converges when DIIS error is below 1.0e-08
 ---------------------------------------
  Cycle       Energy         DIIS error
 ---------------------------------------
    1   -1943.7056715521      4.71e-04  
    2   -1943.7186940415      1.13e-04  
    3   -1943.7191103103      1.34e-04  
    4   -1943.7197109309      2.12e-05  
    5   -1943.7197408722      1.14e-05  
    6   -1943.7197472935      3.36e-06  
    7   -1943.7197482125      1.40e-06  
    8   -1943.7197483939      7.02e-07  
    9   -1943.7197484331      2.53e-07  
   10   -1943.7197484401      9.97e-08  
   11   -1943.7197484418      3.42e-08  
   12   -1943.7197484414      1.34e-08  
   13   -1943.7197484403      7.78e-09  Convergence criterion met
 ---------------------------------------
 SCF time:   CPU 1252.42s  wall 38.00s 
 SCF   energy in the final basis set =    -1943.7197484403
 Total energy in the final basis set =    -1943.7197484403
 
 --------------------------------------------------------------
 
                    Orbital Energies (a.u.)
 --------------------------------------------------------------
 
 Alpha MOs
 -- Occupied --
-89.0570 -89.0565 -19.2936 -19.2934 -19.2371 -19.2370 -10.4025 -10.4023
-10.3726 -10.3726 -10.3483 -10.3481 -10.3360 -10.3359 -10.3322 -10.3318
-10.3279 -10.3275 -10.3157 -10.3157 -10.3138 -10.3132 -10.3063 -10.3061
-10.3041 -10.3038 -10.2973 -10.2971  -8.1031  -8.1026  -6.0516  -6.0512
 -6.0478  -6.0473  -6.0451  -6.0446  -1.1989  -1.1978  -1.1561  -1.1560
 -1.0073  -1.0072  -0.9969  -0.9348  -0.8946  -0.8850  -0.8786  -0.8570
 -0.8541  -0.8538  -0.8445  -0.8409  -0.7986  -0.7882  -0.7574  -0.7420
 -0.7133  -0.6835  -0.6819  -0.6689  -0.6541  -0.6465  -0.6366  -0.6282
 -0.6259  -0.6254  -0.6042  -0.5833  -0.5766  -0.5629  -0.5568  -0.5547
 -0.5529  -0.5374  -0.5287  -0.5282  -0.5242  -0.5232  -0.5136  -0.5078
 -0.4984  -0.4980  -0.4891  -0.4838  -0.4833  -0.4758  -0.4734  -0.4617
 -0.4472  -0.4464  -0.4430  -0.4352  -0.4253  -0.4133  -0.3797  -0.3787
 -0.3722  -0.3553  -0.3550  -0.3481  -0.3469  -0.3356  -0.3311  -0.3293
 -0.2921
 -- Virtual --
 -0.0427  -0.0116   0.0176   0.0612   0.0640   0.0838   0.0844   0.0895
  0.0976   0.0992   0.1067   0.1107   0.1257   0.1319   0.1319   0.1398
  0.1459   0.1490   0.1641   0.1649   0.1780   0.1786   0.1800   0.1804
  0.1857   0.1872   0.1940   0.1947   0.1951   0.2022   0.2069   0.2442
  0.2466   0.2543   0.2597   0.2698   0.2738   0.2828   0.2834   0.2862
  0.2944   0.3137   0.3210   0.3303   0.3319   0.3333   0.3420   0.3549
  0.3709   0.3714   0.3738   0.3827   0.3831   0.3833   0.3945   0.4084
  0.4116   0.4160   0.4184   0.4356   0.4382   0.4389   0.4457   0.4487
  0.4560   0.4604   0.4654   0.4730   0.4736   0.4765   0.4814   0.4837
  0.4854   0.4920   0.4937   0.4950   0.5001   0.5025   0.5057   0.5161
  0.5174   0.5312   0.5316   0.5327   0.5341   0.5409   0.5635   0.5641
  0.5700   0.5708   0.5782   0.5836   0.5864   0.5917   0.5978   0.6058
  0.6076   0.6146   0.6195   0.6301   0.6330   0.6351   0.6475   0.6518
  0.6584   0.6602   0.6633   0.6700   0.6717   0.6743   0.6765   0.6838
  0.6908   0.6927   0.7054   0.7124   0.7165   0.7226   0.7246   0.7294
  0.7312   0.7336   0.7403   0.7515   0.7605   0.7644   0.7697   0.7850
  0.7916   0.7931   0.7936   0.7958   0.8068   0.8083   0.8168   0.8273
  0.8300   0.8348   0.8378   0.8479   0.8528   0.8585   0.8594   0.8653
  0.8679   0.8711   0.8902   0.9020   0.9118   0.9213   0.9325   0.9467
  0.9530   0.9671   0.9779   0.9787   0.9796   0.9867   0.9892   0.9999
  1.0019   1.0049   1.0096   1.0119   1.0226   1.0293   1.0396   1.0501
  1.0610   1.0736   1.0794   1.0825   1.0943   1.1011   1.1057   1.1111
  1.1202   1.1224   1.1350   1.1396   1.1411   1.1423   1.1447   1.1483
  1.1493   1.1499   1.1574   1.1694   1.1750   1.1929   1.1955   1.2121
  1.2181   1.2275   1.2321   1.2464   1.2547   1.2696   1.2923   1.2959
  1.3114   1.3129   1.3598   1.3722   1.3726   1.3802   1.4018   1.4089
  1.4114   1.4137   1.4190   1.4238   1.4370   1.4405   1.4547   1.4616
  1.4980   1.5110   1.5120   1.5365   1.5410   1.5425   1.5494   1.5632
  1.5639   1.5681   1.5711   1.5919   1.5937   1.5951   1.6044   1.6062
  1.6097   1.6154   1.6296   1.6307   1.6331   1.6391   1.6445   1.6533
  1.6624   1.6653   1.6720   1.6754   1.6802   1.6861   1.6932   1.7027
  1.7122   1.7205   1.7247   1.7352   1.7473   1.7513   1.7627   1.7666
  1.7693   1.7724   1.7810   1.7907   1.7941   1.8062   1.8105   1.8133
  1.8173   1.8273   1.8371   1.8437   1.8695   1.8704   1.8819   1.8876
  1.8949   1.9000   1.9125   1.9278   1.9392   1.9487   1.9523   1.9540
  1.9585   1.9667   1.9773   1.9864   1.9911   2.0010   2.0087   2.0096
  2.0099   2.0327   2.0602   2.0659   2.0775   2.0903   2.0907   2.1013
  2.1040   2.1086   2.1341   2.1444   2.1480   2.1570   2.1599   2.1653
  2.1698   2.1766   2.1815   2.2093   2.2148   2.2329   2.2457   2.2695
  2.2797   2.3044   2.3132   2.3140   2.3551   2.3835   2.3882   2.3977
  2.4024   2.4076   2.4091   2.4196   2.4306   2.4494   2.4641   2.4692
  2.4786   2.4879   2.4967   2.5137   2.5165   2.5332   2.5390   2.5682
  2.5742   2.5949   2.6142   2.6166   2.6450   2.6491   2.6510   2.6770
  2.6827   2.6907   2.6962   2.6983   2.7126   2.7143   2.7322   2.7362
  2.7384   2.7478   2.7557   2.7599   2.7619   2.7715   2.7719   2.7747
  2.7878   2.7887   2.7917   2.8351   2.8631   2.8779   2.8789   2.8889
  2.8988   2.9217   2.9572   2.9652   2.9731   2.9780   2.9923   2.9978
  3.0042   3.0105   3.0176   3.0211   3.0638   3.0645   3.0661   3.0794
  3.0850   3.0869   3.0959   3.1061   3.1192   3.1319   3.1340   3.1468
  3.1731   3.1804   3.1827   3.1988   3.2027   3.2286   3.2508   3.2677
  3.2804   3.2909   3.2915   3.3378   3.3404   3.3494   3.3539   3.3969
  3.4008   3.4150   3.4154   3.4186   3.4228   3.4241   3.4370   3.4669
  3.5067   3.5388   3.5471   3.5604   3.5639   3.6171   3.6338   3.6422
  3.6803   3.6828   3.7027   3.7222   3.7735   3.7875   3.7962   3.8419
  3.8422   3.8470   3.8902   3.9189   3.9500   4.1054   4.1057   4.1694
  4.1928   4.1956   4.2201   4.2223   4.3035   4.3247   4.3535   4.4939
  4.5402   4.6081   4.9398   5.0034   5.0087   5.0184   5.0204   5.1776
  5.1788   5.4309   5.4928   5.7294   5.7352   5.8708   5.9291   7.9172
  7.9176  17.3198  17.3207  17.5337  17.5351  17.6142  17.6152  23.4738
 23.5929  23.6755  23.7199  23.8066  23.9228  23.9241  23.9769  23.9930
 23.9935  23.9959  23.9983  24.0431  24.1331  24.2096  24.2186  24.2189
 24.2644  24.2857  24.2858  25.2339  25.2475  50.0621  50.0696  50.1351
 50.1360 189.1450 189.1453
 --------------------------------------------------------------
 
          Ground-State Mulliken Net Atomic Charges

     Atom                 Charge (a.u.)
  ----------------------------------------
      1 C                    -0.074621
      2 C                    -0.230264
      3 C                     0.240376
      4 C                    -0.013032
      5 C                    -0.018262
      6 C                    -0.233447
      7 C                    -0.077036
      8 C                     0.238783
      9 H                     0.146494
     10 O                    -0.327685
     11 O                    -0.328854
     12 C                     0.102639
     13 C                     0.224029
     14 S                     0.345987
     15 H                     0.155272
     16 C                    -0.356089
     17 O                    -0.283437
     18 H                     0.124514
     19 C                    -0.013927
     20 C                    -0.312080
     21 H                     0.139121
     22 C                    -0.088545
     23 C                     0.102725
     24 C                     0.230734
     25 H                     0.154452
     26 O                    -0.283621
     27 C                    -0.352267
     28 C                    -0.304325
     29 S                     0.338427
     30 C                    -0.090724
     31 C                    -0.014398
     32 H                     0.155636
     33 H                     0.138899
     34 C                    -0.176578
     35 H                     0.123810
     36 H                     0.151106
     37 C                    -0.177879
     38 H                     0.123222
     39 H                     0.151481
     40 H                     0.124514
     41 H                     0.122203
     42 H                     0.122650
  ----------------------------------------
  Sum of atomic charges =     0.000000

 -----------------------------------------------------------------
                    Cartesian Multipole Moments
 -----------------------------------------------------------------
    Charge (ESU x 10^10)
                -0.0000
    Dipole Moment (Debye)
         X      -0.3472      Y       0.0875      Z       0.2081
       Tot       0.4142
    Quadrupole Moments (Debye-Ang)
        XX    -149.2301     XY      49.9227     YY    -164.8066
        XZ      -1.0152     YZ       1.3063     ZZ    -178.9189
    Octopole Moments (Debye-Ang^2)
       XXX     -43.3049    XXY      18.8807    XYY      -1.4717
       YYY      -3.2429    XXZ       5.5744    XYZ       2.4774
       YYZ       6.3251    XZZ      -0.9141    YZZ      -1.2898
       ZZZ       5.9798
    Hexadecapole Moments (Debye-Ang^3)
      XXXX  -20753.9649   XXXY    1541.6766   XXYY   -4917.7629
      XYYY     621.9019   YYYY   -3113.9784   XXXZ     -36.3133
      XXYZ     -23.6961   XYYZ     -33.3909   YYYZ      21.2003
      XXZZ   -4549.6564   XYZZ     -27.5388   YYZZ    -608.6161
      XZZZ     -14.5385   YZZZ      -0.7232   ZZZZ    -225.6222
 -----------------------------------------------------------------
 Calculating analytic gradient of the SCF energy
 Gradient of SCF Energy
            1           2           3           4           5           6
    1   0.0004311  -0.0003683  -0.0005862   0.0003952  -0.0002449   0.0003347
    2   0.0007642   0.0016135  -0.0004868  -0.0007659  -0.0000196  -0.0010745
    3   0.0001539   0.0002074  -0.0003600  -0.0006614  -0.0005490  -0.0001889
            7           8           9          10          11          12
    1  -0.0000785   0.0002792   0.0007047   0.0004915  -0.0004700  -0.0015239
    2  -0.0002098   0.0009846   0.0001363   0.0000864  -0.0001454  -0.0016370
    3   0.0000214  -0.0000173   0.0000175   0.0000639   0.0002931  -0.0001602
           13          14          15          16          17          18
    1   0.0001067   0.0031393   0.0009460  -0.0023524   0.0008523  -0.0000797
    2   0.0036775  -0.0014462  -0.0003457   0.0017823  -0.0018803   0.0002163
    3   0.0018508  -0.0001619   0.0000705  -0.0002414  -0.0006154   0.0000045
           19          20          21          22          23          24
    1   0.0011718  -0.0041030  -0.0001251   0.0001889   0.0009323  -0.0003556
    2   0.0001352   0.0003739   0.0004309  -0.0018979   0.0000760  -0.0027679
    3  -0.0003011   0.0001089   0.0000252  -0.0000677  -0.0001720   0.0015898
           25          26          27          28          29          30
    1  -0.0006967  -0.0003814   0.0021999   0.0040267  -0.0028604   0.0000756
    2  -0.0000946   0.0021773  -0.0023602  -0.0009376   0.0019773   0.0019331
    3   0.0000502  -0.0004723   0.0003923   0.0005083  -0.0005252  -0.0003639
           31          32          33          34          35          36
    1  -0.0012222  -0.0009397   0.0000803   0.0024876  -0.0001813  -0.0008031
    2   0.0002085   0.0004670  -0.0005347   0.0022705  -0.0005588   0.0012282
    3  -0.0004150  -0.0000494  -0.0000729   0.0001530   0.0007552   0.0001611
           37          38          39          40          41          42
    1  -0.0024456   0.0001617   0.0007263   0.0000553  -0.0001679   0.0001984
    2  -0.0024147   0.0005997  -0.0012177  -0.0002312  -0.0007528   0.0006405
    3  -0.0001658   0.0008823   0.0000037   0.0000284  -0.0009738  -0.0008067
 Max gradient component =       4.103E-03
 RMS gradient           =       1.183E-03
 Gradient time:  CPU 207.32 s  wall 8.71 s
 Geometry Optimization Parameters
   NAtoms,    NIC,     NZ,  NCons,   NDum,   NFix, NCnnct, MaxDiis
       42     280       0       0       0       0       0       0

 Cartesian Hessian Update
 Hessian updated using BFGS update


** GEOMETRY OPTIMIZATION IN DELOCALIZED INTERNAL COORDINATES **
   Searching for a Minimum

   Optimization Cycle:   3

                       Coordinates (Angstroms)
     ATOM                X               Y               Z
      1  C        -1.0242333376   -0.9984917948   -0.1048107637
      2  C        -1.2717784949    0.3764373990   -0.0637097090
      3  C         0.2723339331   -1.4921088563   -0.0856471060
      4  C         3.8547939492   -1.3363149172    0.0002878196
      5  C        -3.7603267938    1.2086010220   -0.1186782651
      6  C         1.3412546873   -0.5842387882   -0.0264439891
      7  C         1.0940554213    0.7915224872    0.0194895446
      8  C        -0.2027386793    1.2850823455    0.0029507281
      9  H        -1.8722677932   -1.6660875057   -0.1535246966
     10  O        -0.5331796327    2.5870092558    0.0474517678
     11  O         0.6037946159   -2.7948692717   -0.1150480234
     12  C         2.6855811871   -1.0452814393   -0.0121219904
     13  C         5.2824738153   -1.5892504659    0.0141175524
     14  S         5.5350960559    1.2271259583    0.0469481485
     15  H         7.2771157452    2.9360570240    0.0439036850
     16  C         6.1417499554   -0.3909089997    0.0162236191
     17  O         5.7483934154   -2.7088466608    0.0061191207
     18  H         9.1338436302    1.0976669572   -0.0187273674
     19  C         7.5120377949   -0.4065561959   -0.0097880146
     20  C         7.1176312511    1.8683408288    0.0293082892
     21  H         8.0697601910   -1.3317959936   -0.0308796200
     22  C         8.0728400034    0.8896595798   -0.0021781940
     23  C        -2.6115385776    0.8473261301   -0.0913568555
     24  C        -5.1528683865    1.6120508021   -0.1506909296
     25  H         1.9419840578    1.4591297649    0.0681632963
     26  O        -5.4856914196    2.7720107643   -0.2735075128
     27  C        -6.1418223418    0.5246715950   -0.0461071786
     28  C        -7.3628723870   -1.5959103123    0.2022910164
     29  S        -5.7207169575   -1.1289528817    0.2217817067
     30  C        -8.2011795714   -0.5347978391   -0.0058968711
     31  C        -7.4996009852    0.6825211067   -0.1480517693
     32  H        -7.6405967725   -2.6290306429    0.3469807727
     33  H        -7.9490007057    1.6501879227   -0.3184552085
     34  C        -0.4293435940   -3.7468241552   -0.2065973007
     35  H        -1.0124842837   -3.6253883449   -1.1254078516
     36  H         0.0614604644   -4.7151766867   -0.2212964021
     37  C         0.5028821051    3.5378636715    0.1105645476
     38  H         1.1497954572    3.4920301621   -0.7717531686
     39  H         0.0131046982    4.5064209319    0.1415964996
     40  H        -9.2772142814   -0.6308476476   -0.0532622602
     41  H        -1.1019877003   -3.7019930206    0.6562382752
     42  H         1.1126637819    3.4158046841    1.0118673774
   Point Group: c1    Number of degrees of freedom:   120


   Energy is  -1943.719748440

 Hessian updated using BFGS update

115 Hessian modes will be used to form the next step
  Hessian Eigenvalues:
     0.002000    0.002001    0.007398    0.007758    0.012201    0.012356
     0.015546    0.016560    0.017052    0.017144    0.018063    0.018187
     0.018742    0.018814    0.020805    0.020823    0.021008    0.021038
     0.021325    0.021410    0.021579    0.021620    0.021831    0.022113
     0.022271    0.022760    0.022803    0.022907    0.022963    0.023330
     0.023361    0.103681    0.104209    0.105295    0.105578    0.134769
     0.145279    0.147466    0.159979    0.159985    0.159991    0.159997
     0.159999    0.160000    0.160000    0.160000    0.161272    0.164637
     0.185585    0.193584    0.194180    0.200001    0.200007    0.220962
     0.221355    0.230130    0.238404    0.239668    0.244869    0.246305
     0.249860    0.249896    0.249941    0.249943    0.249981    0.249989
     0.249992    0.249996    0.250000    0.260875    0.279729    0.319146
     0.324267    0.324410    0.324823    0.326821    0.327494    0.339968
     0.349971    0.353947    0.356343    0.356776    0.357471    0.357733
     0.357820    0.357892    0.358068    0.358836    0.361556    0.365226
     0.367492    0.394549    0.395336    0.396557    0.398391    0.408850
     0.415135    0.435801    0.440439    0.444836    0.445569    0.445850
     0.448818    0.456646    0.458674    0.466789    0.471735    0.484168
     0.488712    0.527999    0.562436    0.944852    0.951153    1.021991
     1.027195

 Minimum search - taking simple RFO step
 Searching for Lamda that Minimizes Along All modes
 Value Taken    Lamda =  -0.00087046
 Step Taken.  Stepsize is  0.209939

                             Maximum     Tolerance    Cnvgd?
         Gradient           0.003628      0.000300      NO
         Displacement       0.081064      0.001200      NO
         Energy change     -0.003497      0.000001      NO


 New Cartesian Coordinates Obtained by Inverse Iteration

 Displacement from previous Coordinates is:  1.312616
 ----------------------------------------------------------------
             Standard Nuclear Orientation (Angstroms)
    I     Atom           X                Y                Z
 ----------------------------------------------------------------
    1      C      -1.0228268124    -0.9893885482    -0.1729331016
    2      C      -1.2827789457     0.3837565831    -0.1359957573
    3      C       0.2788615972    -1.4694278567    -0.1569527898
    4      C       3.8550557502    -1.2990446577    -0.0668530592
    5      C      -3.7795405895     1.1961902547    -0.1690427988
    6      C       1.3402978238    -0.5472158684    -0.1030242072
    7      C       1.0805725234     0.8262438245    -0.0649616731
    8      C      -0.2209088060     1.3064811081    -0.0796189196
    9      H      -1.8674216701    -1.6631764056    -0.2150770435
   10      O      -0.5622270846     2.6080120321    -0.0432523663
   11      O       0.6210827813    -2.7713690829    -0.1872010835
   12      C       2.6883865359    -0.9981011963    -0.0832505276
   13      C       5.2781259323    -1.5837146386    -0.0488454728
   14      S       5.5856584188     1.2318076841     0.0600174089
   15      H       7.3575519116     2.9006626540     0.1928289688
   16      C       6.1623636771    -0.4032957686     0.0317444745
   17      O       5.7171254540    -2.7116755852    -0.0123574021
   18      H       9.1828855267     1.0206220841     0.2168760293
   19      C       7.5289447440    -0.4472871891     0.0947272911
   20      C       7.1863324362     1.8351130283     0.1507549136
   21      H       8.0640625154    -1.3867386646     0.0909643618
   22      C       8.1185192849     0.8377600869     0.1626912301
   23      C      -2.6280234966     0.8421518996    -0.1519657657
   24      C      -5.1752407067     1.5958409514    -0.1882071134
   25      H       1.9250763026     1.4999515881    -0.0233038497
   26      O      -5.5129076869     2.7567318576    -0.2598163033
   27      C      -6.1595761127     0.5074252204    -0.0288911861
   28      C      -7.3701406701    -1.6169715662     0.2684871252
   29      S      -5.7227572664    -1.1563431238     0.1845677348
   30      C      -8.2158708243    -0.5520205294     0.1459909336
   31      C      -7.5189146604     0.6679776846    -0.0240466766
   32      H      -7.6302141516    -2.6553607098     0.4111740555
   33      H      -7.9727390889     1.6424422480    -0.1397947394
   34      C      -0.4115535764    -3.7330683800    -0.2534480937
   35      H      -1.0148606848    -3.6103686475    -1.1592435710
   36      H       0.0856207623    -4.6997810620    -0.2793984854
   37      C       0.4708520453     3.5702170769     0.0065229689
   38      H       1.1105632870     3.5138689820    -0.8807713099
   39      H      -0.0263025720     4.5370065641     0.0304789385
   40      H      -9.2929367824    -0.6431654129     0.1763268098
   41      H      -1.0591708433    -3.6831357355     0.6285510194
   42      H       1.0821772425     3.4542351888     0.9078917520
 ----------------------------------------------------------------
 Molecular Point Group                 C1    NOp =  1
 Largest Abelian Subgroup              C1    NOp =  1
 Nuclear Repulsion Energy =        2479.14771897 hartrees
 There are      105 alpha and      105 beta electrons
 Applying Cartesian multipole field
    Component          Value
    ---------          -----
     (2,0,0)        1.00000E-12
     (0,2,0)        2.00000E-11
     (0,0,2)       -3.00000E-10
 Nucleus-field energy     =     0.0000000605 hartrees
 Requested basis set is 6-311G(d,p)
 There are 210 shells and 604 basis functions
 A cutoff of  1.0D-11 yielded   9192 shell pairs
 There are     80057 function pairs (     87106 Cartesian)
 Smallest overlap matrix eigenvalue = 1.67E-05
 Guess MOs from SCF MO coefficient file

 -----------------------------------------------------------------------
  General SCF calculation program by
  Eric Jon Sundstrom, Paul Horn, Yuezhi Mao, Dmitri Zuev, Alec White,
  David Stuck, Shaama M.S., Shane Yost, Joonho Lee, David Small,
  Daniel Levine, Susi Lehtola, Hugh Burton, Evgeny Epifanovsky,
  Bang C. Huynh
 -----------------------------------------------------------------------
 Exchange:     0.2220 Hartree-Fock + 1.0000 wB97X-D + LR-HF
 Correlation:  1.0000 wB97X-D
 Using SG-2 standard quadrature grid
 Dispersion:   Grimme D
 using 50 threads for integral computing
 -------------------------------------------------------
 OpenMP Integral computing Module                
 Release: version 1.0, May 2013, Q-Chem Inc. Pittsburgh 
 -------------------------------------------------------
 using 50 threads for integral computing
 -------------------------------------------------------
 OpenMP Integral computing Module                
 Release: version 1.0, May 2013, Q-Chem Inc. Pittsburgh 
 -------------------------------------------------------
 A restricted SCF calculation will be
 performed using DIIS
 SCF converges when DIIS error is below 1.0e-08
 ---------------------------------------
  Cycle       Energy         DIIS error
 ---------------------------------------
    1   -1943.6998124616      4.77e-04  
    2   -1943.7180044049      1.03e-04  
    3   -1943.7194436575      4.45e-05  
    4   -1943.7195274925      3.41e-05  
    5   -1943.7195783709      7.48e-06  
    6   -1943.7195818515      2.92e-06  
    7   -1943.7195824239      1.37e-06  
    8   -1943.7195825659      5.35e-07  
    9   -1943.7195825936      2.33e-07  
[...]
    Strength   :     0.0000009185
    D(  105) --> V(    4) amplitude =  0.6925
    D(  105) --> V(    6) amplitude =  0.6017
    D(  105) --> V(   14) amplitude = -0.2183

 Excited state  35: excitation energy (eV) =    5.7311
 Total energy for state 35:                 -1943.58490387 au
    Multiplicity: Singlet
    Trans. Mom.:  0.0004 X  -0.0001 Y   0.0020 Z
    Strength   :     0.0000005623
    D(   97) --> V(    1) amplitude =  0.3398
    D(  102) --> V(    2) amplitude = -0.2524
    D(  103) --> V(    1) amplitude =  0.3470
    D(  103) --> V(    3) amplitude =  0.3063
    D(  104) --> V(    2) amplitude =  0.6838

 Excited state  36: excitation energy (eV) =    5.7817
 Total energy for state 36:                 -1943.58304291 au
    Multiplicity: Singlet
    Trans. Mom.: -0.4342 X  -0.2793 Y   0.0061 Z
    Strength   :     0.0377583440
    D(  102) --> V(    1) amplitude =  0.3502
    D(  103) --> V(    2) amplitude =  0.3830
    D(  104) --> V(    1) amplitude =  0.2206
    D(  104) --> V(    3) amplitude =  0.4975
    D(  105) --> V(    7) amplitude =  0.5099

 Excited state  37: excitation energy (eV) =    5.9136
 Total energy for state 37:                 -1943.57819530 au
    Multiplicity: Singlet
    Trans. Mom.:  0.0399 X   1.4035 Y   0.0020 Z
    Strength   :     0.2856370074
    D(  102) --> V(    3) amplitude =  0.4554
    D(  103) --> V(    2) amplitude =  0.4619
    D(  104) --> V(    1) amplitude =  0.3143
    D(  105) --> V(    7) amplitude = -0.5073

 Excited state  38: excitation energy (eV) =    5.9176
 Total energy for state 38:                 -1943.57804871 au
    Multiplicity: Singlet
    Trans. Mom.: -0.0013 X   0.0019 Y   0.0037 Z
    Strength   :     0.0000026907
    D(   97) --> V(    1) amplitude = -0.2292
    D(  102) --> V(    2) amplitude =  0.6695
    D(  103) --> V(    1) amplitude =  0.3424
    D(  103) --> V(    3) amplitude =  0.4566

 Excited state  39: excitation energy (eV) =    6.0733
 Total energy for state 39:                 -1943.57232738 au
    Multiplicity: Singlet
    Trans. Mom.:  1.1310 X   0.1216 Y  -0.0035 Z
    Strength   :     0.1925152901
    D(  100) --> V(    1) amplitude = -0.5242
    D(  100) --> V(    3) amplitude = -0.4931
    D(  101) --> V(    2) amplitude =  0.4663
    D(  101) --> V(    8) amplitude = -0.2548

 Excited state  40: excitation energy (eV) =    6.0846
 Total energy for state 40:                 -1943.57191339 au
    Multiplicity: Singlet
    Trans. Mom.:  0.0010 X   0.0025 Y   0.3249 Z
    Strength   :     0.0157397426
    D(  105) --> V(    5) amplitude =  0.8543
    D(  105) --> V(    9) amplitude =  0.3855
 
 ---------------------------------------------------
  SETman timing summary (seconds)
  CPU time            332077.68s
  System time              0.06s
  Wall time            14074.56s
 
 --------------------------------------------------------------
 
                    Orbital Energies (a.u.)
 --------------------------------------------------------------
 
 Alpha MOs
 -- Occupied --
-88.9745 -88.9745 -19.2480 -19.2480 -19.1943 -19.1943 -10.3651 -10.3650
-10.3343 -10.3343 -10.3113 -10.3113 -10.2977 -10.2977 -10.2934 -10.2934
-10.2892 -10.2892 -10.2775 -10.2775 -10.2767 -10.2767 -10.2690 -10.2690
-10.2670 -10.2670 -10.2610 -10.2610  -8.0515  -8.0515  -6.0148  -6.0148
 -6.0111  -6.0111  -6.0091  -6.0091  -1.1755  -1.1744  -1.1363  -1.1363
 -0.9859  -0.9859  -0.9771  -0.9151  -0.8748  -0.8641  -0.8588  -0.8377
 -0.8337  -0.8336  -0.8251  -0.8208  -0.7789  -0.7688  -0.7379  -0.7224
 -0.6938  -0.6647  -0.6630  -0.6491  -0.6342  -0.6269  -0.6164  -0.6099
 -0.6070  -0.6068  -0.5848  -0.5670  -0.5601  -0.5443  -0.5384  -0.5365
 -0.5345  -0.5187  -0.5115  -0.5111  -0.5073  -0.5063  -0.4953  -0.4900
 -0.4810  -0.4808  -0.4710  -0.4637  -0.4635  -0.4576  -0.4552  -0.4439
 -0.4267  -0.4263  -0.4255  -0.4174  -0.4068  -0.3962  -0.3619  -0.3609
 -0.3544  -0.3400  -0.3398  -0.3280  -0.3266  -0.3173  -0.3131  -0.3108
 -0.2743
 -- Virtual --
 -0.0678  -0.0388  -0.0109   0.0122   0.0139   0.0265   0.0310   0.0312
  0.0317   0.0371   0.0401   0.0484   0.0523   0.0525   0.0547   0.0556
  0.0564   0.0570   0.0598   0.0667   0.0671   0.0728   0.0763   0.0793
  0.0796   0.0825   0.0828   0.0874   0.0896   0.0954   0.0964   0.1008
  0.1012   0.1032   0.1082   0.1143   0.1149   0.1171   0.1206   0.1233
  0.1256   0.1279   0.1343   0.1363   0.1382   0.1423   0.1479   0.1529
  0.1529   0.1538   0.1587   0.1600   0.1632   0.1651   0.1681   0.1725
  0.1771   0.1773   0.1825   0.1850   0.1853   0.1869   0.1879   0.1888
  0.1947   0.1951   0.1957   0.1957   0.2012   0.2017   0.2047   0.2083
  0.2127   0.2132   0.2138   0.2173   0.2198   0.2235   0.2239   0.2248
  0.2278   0.2346   0.2352   0.2382   0.2399   0.2403   0.2429   0.2456
  0.2490   0.2492   0.2515   0.2548   0.2558   0.2573   0.2592   0.2676
  0.2678   0.2724   0.2739   0.2740   0.2747   0.2775   0.2792   0.2833
  0.2846   0.2861   0.2890   0.2906   0.2906   0.2942   0.2962   0.2980
  0.2993   0.3056   0.3057   0.3065   0.3079   0.3127   0.3153   0.3161
  0.3183   0.3193   0.3196   0.3212   0.3227   0.3235   0.3254   0.3270
  0.3278   0.3302   0.3356   0.3368   0.3380   0.3399   0.3400   0.3436
  0.3449   0.3456   0.3462   0.3481   0.3540   0.3549   0.3571   0.3589
  0.3617   0.3624   0.3663   0.3675   0.3684   0.3736   0.3744   0.3779
  0.3826   0.3832   0.3833   0.3844   0.3874   0.3884   0.3888   0.3933
  0.3953   0.3957   0.3991   0.4009   0.4020   0.4029   0.4065   0.4084
  0.4096   0.4122   0.4177   0.4185   0.4230   0.4237   0.4294   0.4334
  0.4336   0.4368   0.4375   0.4378   0.4421   0.4450   0.4466   0.4500
  0.4504   0.4527   0.4583   0.4605   0.4611   0.4632   0.4652   0.4675
  0.4712   0.4721   0.4726   0.4764   0.4770   0.4806   0.4813   0.4834
  0.4870   0.4896   0.4927   0.4952   0.4955   0.4959   0.5016   0.5027
  0.5053   0.5069   0.5168   0.5180   0.5203   0.5237   0.5251   0.5261
  0.5264   0.5323   0.5336   0.5342   0.5352   0.5435   0.5454   0.5457
  0.5498   0.5514   0.5580   0.5608   0.5623   0.5639   0.5696   0.5753
  0.5785   0.5815   0.5822   0.5836   0.5845   0.5861   0.5864   0.5916
  0.5930   0.5953   0.5975   0.6068   0.6082   0.6112   0.6148   0.6199
  0.6225   0.6243   0.6255   0.6296   0.6312   0.6316   0.6318   0.6327
  0.6375   0.6413   0.6447   0.6474   0.6496   0.6534   0.6545   0.6612
  0.6630   0.6632   0.6691   0.6710   0.6711   0.6749   0.6761   0.6780
  0.6789   0.6850   0.6863   0.6884   0.6911   0.6914   0.6927   0.6935
  0.6954   0.7006   0.7011   0.7054   0.7064   0.7099   0.7119   0.7130
  0.7150   0.7168   0.7174   0.7189   0.7233   0.7278   0.7307   0.7336
  0.7355   0.7357   0.7360   0.7384   0.7406   0.7413   0.7461   0.7471
  0.7481   0.7503   0.7528   0.7548   0.7569   0.7581   0.7589   0.7603
  0.7643   0.7670   0.7679   0.7697   0.7721   0.7770   0.7790   0.7805
  0.7822   0.7884   0.7897   0.7942   0.7965   0.8004   0.8011   0.8035
  0.8047   0.8090   0.8108   0.8164   0.8212   0.8219   0.8234   0.8266
  0.8276   0.8297   0.8339   0.8417   0.8433   0.8490   0.8492   0.8512
  0.8522   0.8540   0.8590   0.8639   0.8668   0.8686   0.8693   0.8705
  0.8722   0.8791   0.8807   0.8819   0.8864   0.8873   0.8962   0.8979
  0.9050   0.9121   0.9168   0.9207   0.9236   0.9296   0.9345   0.9365
  0.9398   0.9414   0.9468   0.9480   0.9503   0.9579   0.9590   0.9665
  0.9689   0.9739   0.9755   0.9786   0.9811   0.9812   0.9822   0.9854
  0.9927   0.9981   0.9988   0.9994   1.0055   1.0059   1.0089   1.0159
  1.0201   1.0205   1.0222   1.0282   1.0299   1.0335   1.0390   1.0402
  1.0436   1.0509   1.0552   1.0570   1.0643   1.0664   1.0734   1.0753
  1.0822   1.0845   1.0918   1.0953   1.0974   1.0984   1.1007   1.1090
  1.1125   1.1138   1.1194   1.1199   1.1242   1.1284   1.1359   1.1369
  1.1409   1.1430   1.1558   1.1614   1.1649   1.1675   1.1811   1.1830
  1.1887   1.1970   1.2003   1.2053   1.2133   1.2193   1.2227   1.2237
  1.2291   1.2297   1.2334   1.2462   1.2490   1.2493   1.2522   1.2607
  1.2633   1.2663   1.2686   1.2738   1.2754   1.2842   1.2974   1.3013
  1.3068   1.3081   1.3083   1.3222   1.3270   1.3291   1.3345   1.3406
  1.3541   1.3595   1.3650   1.3697   1.3709   1.3734   1.3815   1.3874
  1.3888   1.3916   1.3987   1.3993   1.4027   1.4054   1.4108   1.4147
  1.4194   1.4218   1.4267   1.4271   1.4311   1.4535   1.4571   1.4606
  1.4615   1.4657   1.4699   1.4711   1.4747   1.4753   1.4801   1.4882
  1.4945   1.4949   1.4970   1.5081   1.5091   1.5134   1.5170   1.5209
  1.5353   1.5465   1.5521   1.5524   1.5615   1.5647   1.5825   1.5830
  1.5898   1.5923   1.5986   1.6042   1.6152   1.6168   1.6269   1.6301
  1.6409   1.6416   1.6441   1.6459   1.6510   1.6582   1.6621   1.6634
  1.6760   1.6820   1.6903   1.7016   1.7028   1.7076   1.7101   1.7133
  1.7181   1.7191   1.7269   1.7348   1.7364   1.7413   1.7463   1.7516
  1.7517   1.7529   1.7561   1.7654   1.7673   1.7678   1.7705   1.7714
  1.7767   1.7847   1.7956   1.7978   1.7992   1.8012   1.8073   1.8079
  1.8152   1.8168   1.8251   1.8455   1.8548   1.8742   1.8810   1.8819
  1.9019   1.9129   1.9135   1.9148   1.9207   1.9246   1.9315   1.9410
  1.9488   1.9511   1.9573   1.9659   1.9675   1.9718   1.9727   1.9808
  1.9841   1.9852   1.9896   1.9924   2.0021   2.0121   2.0126   2.0248
  2.0341   2.0381   2.0386   2.0561   2.0586   2.0630   2.0643   2.0725
  2.0780   2.0867   2.0901   2.0959   2.0977   2.1005   2.1032   2.1108
  2.1272   2.1298   2.1374   2.1446   2.1494   2.1505   2.1603   2.1628
  2.1672   2.1681   2.1768   2.1826   2.1862   2.1940   2.2158   2.2296
  2.2307   2.2408   2.2433   2.2501   2.2511   2.2527   2.2604   2.2606
  2.2712   2.2890   2.2920   2.2951   2.3015   2.3097   2.3116   2.3120
  2.3176   2.3204   2.3273   2.3285   2.3292   2.3499   2.3585   2.3682
  2.3844   2.3901   2.3970   2.4133   2.4146   2.4370   2.4401   2.4511
  2.4525   2.4688   2.4742   2.4901   2.4920   2.4962   2.4993   2.5190
  2.5429   2.5642   2.5702   2.5781   2.5791   2.5943   2.5966   2.6009
  2.6015   2.6040   2.6213   2.6224   2.6250   2.6349   2.6429   2.6637
  2.6776   2.6786   2.6805   2.6816   2.6871   2.6883   2.6999   2.7084
  2.7226   2.7247   2.7273   2.7349   2.7376   2.7426   2.7637   2.7644
  2.7664   2.7761   2.7773   2.7784   2.7894   2.7998   2.8140   2.8216
  2.8304   2.8317   2.8339   2.8358   2.8511   2.8513   2.8526   2.8532
  2.8539   2.8910   2.9032   2.9056   2.9082   2.9181   2.9223   2.9354
  2.9462   2.9465   2.9485   2.9497   2.9601   2.9681   2.9749   2.9814
  2.9945   3.0043   3.0071   3.0107   3.0125   3.0184   3.0236   3.0237
  3.0314   3.0379   3.0515   3.0560   3.0576   3.0610   3.0640   3.0692
  3.0713   3.0786   3.0794   3.0834   3.0902   3.0937   3.0942   3.0954
  3.1029   3.1039   3.1056   3.1135   3.1142   3.1250   3.1282   3.1303
  3.1405   3.1410   3.1425   3.1450   3.1484   3.1487   3.1492   3.1539
  3.1593   3.1640   3.1745   3.1751   3.1760   3.1859   3.1893   3.1951
  3.1968   3.2080   3.2196   3.2247   3.2326   3.2344   3.2346   3.2384
  3.2401   3.2468   3.2540   3.2555   3.2574   3.2584   3.2626   3.2785
  3.2878   3.2901   3.2904   3.3003   3.3015   3.3060   3.3082   3.3139
  3.3177   3.3263   3.3275   3.3436   3.3439   3.3467   3.3483   3.3538
  3.3623   3.3656   3.3777   3.3789   3.3812   3.3826   3.3878   3.3999
  3.4014   3.4085   3.4086   3.4120   3.4177   3.4181   3.4283   3.4356
  3.4356   3.4428   3.4449   3.4465   3.4480   3.4562   3.4580   3.4696
  3.4796   3.4801   3.4872   3.4911   3.4938   3.4976   3.5054   3.5073
  3.5107   3.5133   3.5209   3.5250   3.5317   3.5424   3.5452   3.5516
  3.5564   3.5572   3.5590   3.5614   3.5722   3.5764   3.5877   3.5899
  3.5908   3.5968   3.5973   3.6172   3.6199   3.6229   3.6281   3.6285
  3.6305   3.6341   3.6367   3.6387   3.6428   3.6460   3.6510   3.6608
  3.6756   3.6912   3.7029   3.7056   3.7096   3.7139   3.7166   3.7239
  3.7458   3.7495   3.7529   3.7590   3.7598   3.7627   3.7665   3.7681
  3.7725   3.7738   3.7772   3.7918   3.8046   3.8079   3.8123   3.8134
  3.8251   3.8289   3.8296   3.8358   3.8392   3.8589   3.8658   3.8715
  3.8728   3.8788   3.8812   3.8831   3.8871   3.8911   3.8922   3.9284
  3.9357   3.9406   3.9406   3.9436   3.9468   3.9472   3.9485   3.9641
  3.9701   3.9769   3.9796   4.0011   4.0113   4.0191   4.0224   4.0254
  4.0263   4.0433   4.0461   4.0586   4.0610   4.0822   4.0840   4.0920
  4.1013   4.1077   4.1206   4.1220   4.1251   4.1260   4.1448   4.1526
  4.1537   4.1664   4.1699   4.1711   4.1820   4.1828   4.1831   4.2077
  4.2104   4.2185   4.2214   4.2509   4.2609   4.2683   4.2712   4.2727
  4.2728   4.2748   4.2864   4.3034   4.3062   4.3109   4.3159   4.3230
  4.3320   4.3411   4.3435   4.3444   4.3556   4.3679   4.3716   4.3823
  4.3935   4.3938   4.3957   4.3991   4.4088   4.4124   4.4280   4.4299
  4.4491   4.4509   4.4716   4.4744   4.4942   4.4946   4.4985   4.5199
  4.5523   4.5554   4.5597   4.5767   4.5901   4.6116   4.6156   4.6288
  4.6326   4.6452   4.6479   4.6731   4.6830   4.6849   4.6875   4.6903
  4.7117   4.7269   4.7307   4.7361   4.7378   4.7495   4.7593   4.7610
  4.7616   4.7887   4.7992   4.8121   4.8208   4.8411   4.8640   4.8732
  4.8751   4.9009   4.9218   4.9253   4.9380   4.9381   4.9649   4.9655
  4.9811   4.9934   5.0341   5.0561   5.0565   5.0665   5.0757   5.0913
  5.0973   5.0994   5.1031   5.1073   5.1204   5.1276   5.1540   5.1614
  5.1637   5.1800   5.1848   5.1954   5.2432   5.2455   5.2463   5.2525
  5.2532   5.2689   5.2734   5.2761   5.2930   5.3043   5.3059   5.3080
  5.3132   5.3153   5.3265   5.3350   5.3373   5.3544   5.3743   5.3806
  5.3809   5.3912   5.4070   5.4111   5.4133   5.4282   5.4413   5.4633
  5.4754   5.4880   5.4934   5.5179   5.5330   5.5627   5.5744   5.5819
  5.6202   5.6344   5.6392   5.6682   5.6763   5.6860   5.6891   5.7047
  5.7199   5.7241   5.7250   5.7412   5.7650   5.7749   5.7851   5.8156
  5.8356   5.8395   5.8533   5.8816   5.8902   5.9006   5.9730   5.9924
  6.0160   6.0254   6.0322   6.1300   6.1402   6.1697   6.1751   6.2432
  6.2447   6.2735   6.2741   6.4099   6.4906   6.5470   6.5505   6.6137
  6.6153   6.7019   6.8054   6.8098   6.8148   6.8335   6.8422   6.8488
  6.8542   6.8612   6.8691   6.8712   6.8926   6.8929   6.9614   6.9624
  7.0274   7.0468   7.0473   7.0495   7.0544   7.0926   7.1162   7.1290
  7.1295   7.2752   7.2777   7.3360   7.3394   7.5474   7.5475   7.5601
  7.5822   7.7023   7.7638   9.0958   9.0964   9.6357   9.6410   9.7060
  9.7066  20.9197  20.9208  22.8859  22.8904  23.0417  23.1101  23.1122
 23.1985  23.2006  23.3295  23.3810  23.4013  23.4157  23.4566  23.4826
 23.6243  23.6868  23.7286  23.8689  23.9247  23.9357  24.2809  24.4051
 24.8428  44.3917  44.3940  44.7045  44.7379
 --------------------------------------------------------------
 
          Ground-State Mulliken Net Atomic Charges

     Atom                 Charge (a.u.)
  ----------------------------------------
      1 C                    -0.113716
      2 C                     0.505633
      3 C                     0.368834
      4 C                     0.092269
      5 C                     0.090613
      6 C                     0.504573
      7 C                    -0.115567
      8 C                     0.366849
      9 H                     0.083453
     10 O                    -0.438650
     11 O                    -0.438877
     12 C                    -0.282374
     13 C                     0.176470
     14 S                    -0.177995
     15 H                     0.110148
     16 C                     0.300743
     17 O                    -0.506803
     18 H                     0.067170
     19 C                    -0.233124
     20 C                    -0.021084
     21 H                     0.141976
     22 C                    -0.149304
     23 C                    -0.282667
     24 C                     0.178474
     25 H                     0.084884
     26 O                    -0.506730
     27 C                     0.304118
     28 C                    -0.022078
     29 S                    -0.178067
     30 C                    -0.147818
     31 C                    -0.235298
     32 H                     0.110176
     33 H                     0.141711
     34 C                    -0.527216
     35 H                     0.231184
     36 H                     0.141804
     37 C                    -0.527031
     38 H                     0.231882
     39 H                     0.141737
     40 H                     0.067175
     41 H                     0.231691
     42 H                     0.230831
  ----------------------------------------
  Sum of atomic charges =     0.000000

 -----------------------------------------------------------------
                    Cartesian Multipole Moments
 -----------------------------------------------------------------
    Charge (ESU x 10^10)
                -0.0000
    Dipole Moment (Debye)
         X       0.0171      Y       0.0047      Z      -0.0313
       Tot       0.0359
    Quadrupole Moments (Debye-Ang)
        XX    -151.4778     XY     -49.3923     YY    -168.3743
        XZ      -0.2445     YZ      -0.1433     ZZ    -179.6413
    Octopole Moments (Debye-Ang^2)
       XXX       2.0149    XXY       0.8862    XYY       0.0797
       YYY      -0.1057    XXZ      -2.0448    XYZ       0.0188
       YYZ      -0.3164    XZZ      -0.0224    YZZ      -0.0304
       ZZZ       0.1967
    Hexadecapole Moments (Debye-Ang^3)
      XXXX  -21682.3991   XXXY   -1507.3795   XXYY   -5139.1309
      XYYY    -527.5234   YYYY   -3176.7808   XXXZ     -12.1105
      XXYZ       1.4380   XYYZ      -4.0142   YYYZ      -2.1960
      XXZZ   -4721.4720   XYZZ      58.0079   YYZZ    -615.1439
      XZZZ       1.1192   YZZZ      -0.2669   ZZZZ    -218.8021
 -----------------------------------------------------------------
Archival summary:
1\1\qnode0211\SP\ProcedureUnspecified\BasisUnspecified\242214\ahs1068\ThuNov315:46:252022ThuNov315:46:252022\0\\#,ProcedureUnspecified,BasisUnspecified,\\0,1\S\C,1,1.71334\H,2,1.07991,1,119.85\C,2,1.36594,1,112.323,3,179.98,0\H,4,1.08138,2,123.402,1,-179.985,0\C,4,1.41455,2,112.291,1,0.0193448,0\H,6,1.08115,4,125.422,2,179.992,0\C,6,1.36906,4,112.864,2,-0.00983633,0\C,8,1.47577,6,125.164,4,179.962,0\O,9,1.21144,8,121.76,6,-0.0543159,0\C,9,1.45091,8,116.16,6,179.937,0\C,11,1.20476,9,179.401,8,3.38501,0\C,12,1.42206,11,178.792,9,-4.19631,0\C,13,1.39794,12,119.573,11,0.309823,0\H,14,1.08121,13,117.901,12,-0.0634232,0\C,14,1.38834,13,120.925,12,179.991,0\O,16,1.34558,14,124.803,13,179.982,0\C,13,1.40655,12,120.127,11,-179.709,0\O,18,1.34559,13,116.423,12,0.00549122,0\C,18,1.38833,13,118.776,12,-179.995,0\H,20,1.08121,18,121.174,13,179.96,0\C,20,1.39794,18,120.925,13,0.0193805,0\C,19,1.41236,18,118.472,13,179.639,0\H,23,1.08766,19,105.697,18,-179.736,0\H,23,1.09564,19,111.392,18,61.6575,0\H,23,1.09564,19,111.355,18,-61.1649,0\C,17,1.41236,16,118.479,14,0.363189,0\H,27,1.08766,17,105.696,16,179.752,0\H,27,1.09564,17,111.393,16,-61.6412,0\H,27,1.09564,17,111.354,16,61.1811,0\C,22,1.42205,20,119.587,18,-179.994,0\C,31,1.20476,22,178.865,20,0.322402,0\C,32,1.45097,31,179.562,22,18.4715,0\O,33,1.21145,32,122.052,31,162.236,0\C,33,1.4757,32,116.184,31,-17.745,0\C,35,1.36907,33,125.18,32,179.983,0\H,36,1.08115,35,121.719,33,0.0437379,0\C,36,1.41452,35,112.863,33,-179.969,0\H,38,1.08139,36,124.309,35,179.998,0\C,38,1.36596,36,112.292,35,0.0119006,0\H,40,1.07991,38,127.82,36,-179.998,0\S,40,1.71329,38,112.324,36,-0.00102875,0\\\@

 Total job time:  15183.81s(wall), 362526.38s(cpu) 
 Thu Nov  3 15:46:25 2022

        *************************************************************
        *                                                           *
        *  Thank you very much for using Q-Chem.  Have a nice day.  *
        *                                                           *
        *************************************************************


